   * xtb version 6.4.1 (afa7bdf) compiled by 'ehlert@majestix' on 2021-06-10
          program call               : xtb 40_3-methoxy-L-tyrosine.xyz --gfn2 --chrg 0 --uhf 0 --alpb water --ohess -P 1
          number of atoms            :                    28
          number of electrons        :                    82
          charge                     :                     0

   ID    Z sym.   atoms
    1    8 O      1-3, 24
    2    7 N      4
    3    6 C      5-13, 25
    4    1 H      14-23, 26-28

        Solvent                        water
        Solvent mass                       1.8000E+01 g/mol
          :  Hamiltonian                  GFN2-xTB          :
 * total energy  :   -47.2514818 Eh     change       -0.7978400E-09 Eh
 * total energy  :   -47.2537238 Eh     change       -0.2242051E-02 Eh
 * total energy  :   -47.2540966 Eh     change       -0.3727946E-03 Eh
 * total energy  :   -47.2545298 Eh     change       -0.4332400E-03 Eh
 * total energy  :   -47.2546258 Eh     change       -0.9597986E-04 Eh
 * total energy  :   -47.2546791 Eh     change       -0.5329789E-04 Eh
 * total energy  :   -47.2547000 Eh     change       -0.2089762E-04 Eh
 * total energy  :   -47.2547283 Eh     change       -0.2828953E-04 Eh
 * total energy  :   -47.2547461 Eh     change       -0.1775951E-04 Eh
 * total energy  :   -47.2547871 Eh     change       -0.4100190E-04 Eh
 * total energy  :   -47.2548029 Eh     change       -0.1586920E-04 Eh
 * total energy  :   -47.2548238 Eh     change       -0.2087087E-04 Eh
 * total energy  :   -47.2548322 Eh     change       -0.8421293E-05 Eh
 * total energy  :   -47.2548385 Eh     change       -0.6260133E-05 Eh
 * total energy  :   -47.2548451 Eh     change       -0.6567918E-05 Eh
 * total energy  :   -47.2548510 Eh     change       -0.5956165E-05 Eh
 * total energy  :   -47.2548557 Eh     change       -0.4675890E-05 Eh
   *** GEOMETRY OPTIMIZATION CONVERGED AFTER 17 ITERATIONS ***

 final structure:
================
28
 xtb: 6.4.1 (afa7bdf)
O        -4.50430769922032   -0.32549786234410    0.48034638359105
O         4.02076135181981   -1.15898168252752    0.34293299417281
O        -3.89703255268896    1.49395343593561   -0.67954205857377
N        -2.24872303147229   -1.00974897057088    1.28193680930903
C        -1.40492223140330   -0.16871050509100   -0.89936036219893
C        -2.18110229996723    0.15568106851779    0.37765068554890
C         0.04564193157953   -0.43702356535188   -0.60368952161321
C         0.90306996755095    0.62914403796138   -0.34057815417812
C         0.53625681654254   -1.73106619861841   -0.54354334093404
C         2.22966238289949    0.40498124910835   -0.02473087169813
C         1.86543031538292   -1.96837679548055   -0.22945585858548
C        -3.68680103074536    0.49584190653828    0.01050437677869
C         2.71950600980918   -0.91295084661366    0.03407795172588
H        -1.51379196458336    0.68535606495136   -1.56979064161957
H        -1.86324687815318   -1.03080820089920   -1.38668911947967
H        -1.74661894958736    1.02562236087812    0.86945311665994
H         0.51484550752617    1.63356112602523   -0.39898581440181
H        -0.10503180483651   -2.56880560815145   -0.77109027530418
H         2.26134530360924   -2.96988309135368   -0.18744950328410
H        -1.70166115962450   -1.79968130508252    0.92961140754406
H        -3.29974380450274   -1.21487106639337    1.23967430921869
H         4.47735995178909   -0.31474482672728    0.48679005526283
H        -1.97601037944486   -0.79957509211071    2.24322535964695
O         3.16199158551278    1.37706971702608    0.25043060776169
C         2.75583100811117    2.72928240830320    0.21166564528728
H         1.97238200629397    2.92692669599476    0.94755917160473
H         3.64492312193371    3.30394271019255    0.46111942155321
H         2.40568152586900    3.00807683588350   -0.78543377379449

          :  Hamiltonian                  GFN2-xTB          :
         :: gradient norm              0.000366345617 Eh/a0 ::
         :: HOMO-LUMO gap              4.054907673046 eV    ::
         :: SCC energy               -47.806484637454 Eh    ::
         :: -> dispersion             -0.024531890983 Eh    ::
         :: -> Gsolv                  -0.068907783048 Eh    ::
         :: repulsion energy           0.551485811662 Eh    ::

    * Orbital Energies and Occupations

         #    Occupation            Energy/Eh            Energy/eV
      -------------------------------------------------------------
         1        2.0000           -0.7251420             -19.7321
       ...           ...                  ...                  ...
        29        2.0000           -0.4899033             -13.3309
        30        2.0000           -0.4778088             -13.0018
        31        2.0000           -0.4682674             -12.7422
        32        2.0000           -0.4669932             -12.7075
        33        2.0000           -0.4552520             -12.3880
        34        2.0000           -0.4465296             -12.1507
        35        2.0000           -0.4441284             -12.0853
        36        2.0000           -0.4298402             -11.6965
        37        2.0000           -0.4198212             -11.4239
        38        2.0000           -0.4091125             -11.1325
        39        2.0000           -0.3988539             -10.8534
        40        2.0000           -0.3832929             -10.4299
        41        2.0000           -0.3722455             -10.1293 (HOMO)
        42                         -0.2232304              -6.0744 (LUMO)
        43                         -0.2181130              -5.9352
        44                         -0.1894209              -5.1544
        45                         -0.0934949              -2.5441
        46                         -0.0327702              -0.8917
        47                          0.0076069               0.2070
        48                          0.0452739               1.2320
        49                          0.0606413               1.6501
        50                          0.0801293               2.1804
        51                          0.0918617               2.4997
        52                          0.1063037               2.8927
       ...                                ...                  ...
        73                          0.6580127              17.9054
      -------------------------------------------------------------
                  HL-Gap            0.1490151 Eh            4.0549 eV

     #   Z          covCN         q      C6AA      α(0)
     1   8 O        0.857    -0.605    26.236     6.867
     2   8 O        1.659    -0.447    21.787     6.301
     3   8 O        0.856    -0.607    26.291     6.875
     4   7 N        3.483    -0.187    25.039     7.432
     5   6 C        3.810    -0.074    21.901     6.661
     6   6 C        3.777    -0.014    20.842     6.504
     7   6 C        2.970    -0.002    28.080     8.692
     8   6 C        2.922    -0.079    29.976     8.978
     9   6 C        2.923    -0.062    29.538     8.913
    10   6 C        2.860     0.106    25.659     8.303
    11   6 C        2.917    -0.067    29.679     8.934
    12   6 C        2.683     0.367    20.783     7.460
    13   6 C        2.846     0.123    25.301     8.244
    14   1 H        0.924     0.066     2.128     2.281
    15   1 H        0.924     0.062     2.180     2.309
    16   1 H        0.925     0.081     1.968     2.194
    17   1 H        0.926     0.048     2.339     2.392
    18   1 H        0.926     0.057     2.239     2.340
    19   1 H        0.926     0.061     2.183     2.311
    20   1 H        0.859     0.289     0.746     1.353
    21   1 H        0.854     0.312     0.678     1.290
    22   1 H        0.804     0.371     0.541     1.156
    23   1 H        0.860     0.304     0.702     1.313
    24   8 O        1.704    -0.309    19.142     5.907
    25   6 C        3.641     0.022    20.551     6.519
    26   1 H        0.924     0.054     2.266     2.354
    27   1 H        0.925     0.078     2.004     2.214
    28   1 H        0.924     0.051     2.306     2.375

Wiberg/Mayer (AO) data.
largest (>0.10) Wiberg bond orders for each atom

     #   Z sym  total        # sym  WBO       # sym  WBO       # sym  WBO
 ---------------------------------------------------------------------------
     1   8 O    1.884 --    12 C    1.469     3 O    0.216
     2   8 O    2.083 --    13 C    1.077    22 H    0.839
     3   8 O    1.859 --    12 C    1.557     1 O    0.216
     4   7 N    3.631 --     6 C    0.970    23 H    0.897    20 H    0.895
                            21 H    0.798
     5   6 C    3.989 --     7 C    1.008     6 C    0.980    15 H    0.970
                            14 H    0.961
     6   6 C    3.935 --     5 C    0.980     4 N    0.970    16 H    0.959
                            12 C    0.875
     7   6 C    3.987 --     9 C    1.428     8 C    1.380     5 C    1.008
     8   6 C    3.985 --    10 C    1.416     7 C    1.380    17 H    0.963
     9   6 C    3.986 --     7 C    1.428    11 C    1.417    18 H    0.965
    10   6 C    3.929 --     8 C    1.416    13 C    1.280    24 O    1.035
    11   6 C    3.985 --     9 C    1.417    13 C    1.404    19 H    0.966
    12   6 C    3.932 --     3 O    1.557     1 O    1.469     6 C    0.875
    13   6 C    3.939 --    11 C    1.404    10 C    1.280     2 O    1.077
    14   1 H    0.995 --     5 C    0.961
    15   1 H    0.996 --     5 C    0.970
    16   1 H    0.993 --     6 C    0.959
    17   1 H    0.998 --     8 C    0.963
    18   1 H    0.997 --     9 C    0.965
    19   1 H    0.995 --    11 C    0.966
    20   1 H    0.916 --     4 N    0.895
    21   1 H    0.902 --     4 N    0.798
    22   1 H    0.862 --     2 O    0.839
    23   1 H    0.908 --     4 N    0.897
    24   8 O    2.195 --    10 C    1.035    25 C    0.973
    25   6 C    3.933 --    27 H    0.978    28 H    0.977    26 H    0.977
                            24 O    0.973
    26   1 H    0.997 --    25 C    0.977
    27   1 H    0.994 --    25 C    0.978
    28   1 H    0.997 --    25 C    0.977
 ---------------------------------------------------------------------------

molecular dipole:
                 x           y           z       tot (Debye)
 q only:        3.344      -1.751       2.216
   full:        3.478      -1.457       2.251      11.161

 projected vibrational frequencies (cm⁻¹)
eigval :       -0.00    -0.00    -0.00    -0.00    -0.00     0.00
eigval :       33.18    35.28    55.66    70.16    87.23   146.84
eigval :      164.29   184.12   204.05   258.44   283.06   328.57
eigval :      335.84   353.77   372.10   406.85   421.80   435.94
eigval :      463.00   527.13   531.97   537.75   591.31   654.37
eigval :      675.69   694.63   747.04   806.69   824.71   851.75
eigval :      865.43   892.98   905.59   924.30   958.77  1014.52
eigval :     1040.52  1051.25  1104.91  1116.44  1117.37  1137.86
eigval :     1149.06  1149.50  1160.41  1189.14  1207.13  1251.40
eigval :     1258.85  1286.61  1288.76  1314.37  1326.82  1368.51
eigval :     1393.20  1393.81  1398.85  1435.08  1458.00  1471.07
eigval :     1475.50  1490.13  1585.36  1596.44  1732.53  2562.88
eigval :     2949.79  2962.53  2988.35  3002.69  3009.93  3036.94
eigval :     3085.07  3105.16  3114.93  3286.88  3321.09  3433.58

   temp. (K)  partition function   enthalpy   heat capacity  entropy
                                   cal/mol     cal/K/mol   cal/K/mol   J/K/mol
 298.15  VIB  0.254E+06             7622.425     50.096     46.870
         ROT  0.297E+07              888.752      2.981     32.599
         INT  0.755E+12             8511.177     53.077     79.468
         TR   0.297E+28             1481.254      4.968     41.928
         TOT                        9992.4310    58.0450   121.3958   507.9199

       T/K    H(0)-H(T)+PV         H(T)/Eh          T*S/Eh         G(T)/Eh
   ------------------------------------------------------------------------
    298.15    0.159240E-01    0.233383E+00    0.576791E-01    0.175704E+00
   ------------------------------------------------------------------------

         :::::::::::::::::::::::::::::::::::::::::::::::::::::
         ::                  THERMODYNAMIC                  ::
         :::::::::::::::::::::::::::::::::::::::::::::::::::::
         :: total free energy         -47.079151730832 Eh   ::
         ::.................................................::
         :: total energy              -47.254855696646 Eh   ::
         :: zero point energy           0.217459065217 Eh   ::
         :: G(RRHO) w/o ZPVE           -0.041755099403 Eh   ::
         :: G(RRHO) contrib.            0.175703965814 Eh   ::
         :::::::::::::::::::::::::::::::::::::::::::::::::::::

           -------------------------------------------------
          | TOTAL ENERGY              -47.254855696646 Eh   |
          | TOTAL ENTHALPY            -47.021472679016 Eh   |
          | TOTAL FREE ENERGY         -47.079151730832 Eh   |
          | GRADIENT NORM               0.000366544295 Eh/α |
          | HOMO-LUMO GAP               4.054907498371 eV   |
           -------------------------------------------------

 * finished run on 2021/11/15 at 09:36:27.461
