   * xtb version 6.4.1 (afa7bdf) compiled by 'ehlert@majestix' on 2021-06-10
          program call               : xtb 34_1,2-dimethoxybenzene.xyz --gfn2 --chrg 0 --uhf 0 --alpb water --ohess -P 1
          number of atoms            :                    20
          number of electrons        :                    54
          charge                     :                     0

   ID    Z sym.   atoms
    1    6 C      1-6, 10, 15
    2    1 H      7, 8, 11-13, 16-20
    3    8 O      9, 14

        Solvent                        water
        Solvent mass                       1.8000E+01 g/mol
          :  Hamiltonian                  GFN2-xTB          :
 * total energy  :   -30.3448267 Eh     change       -0.2947544E-09 Eh
 * total energy  :   -30.3455627 Eh     change       -0.7360302E-03 Eh
 * total energy  :   -30.3456053 Eh     change       -0.4259012E-04 Eh
 * total energy  :   -30.3456120 Eh     change       -0.6689627E-05 Eh
 * total energy  :   -30.3456132 Eh     change       -0.1137040E-05 Eh
   *** GEOMETRY OPTIMIZATION CONVERGED AFTER 5 ITERATIONS ***

 final structure:
================
20
 xtb: 6.4.1 (afa7bdf)
C        -0.68928779280932    2.29009511244519    0.00000025563728
C        -1.38674660786902    1.08872757254654   -0.00000053955645
C        -0.70597709179965   -0.11590560029554   -0.00000011259485
C         0.70604055441391   -0.11558117065647   -0.00000005769922
C         1.38625496344795    1.08936742981402    0.00000029644055
C         0.68824410056151    2.29041348202324    0.00000093418288
H         2.46367695039712    1.10682359819030    0.00000075308166
H         1.23561229817379    3.21969703234123    0.00000080799496
O         1.29094411539089   -1.35174341459239   -0.00000062549965
C         2.70320441718817   -1.42430059959333    0.00000053856260
H         3.12354634700713   -0.95702321798225    0.89470327942263
H         2.93277519698008   -2.48739499492579    0.00000041416116
H         3.12354798402456   -0.95702264408611   -0.89470113802317
O        -1.29030544880236   -1.35234603219788   -0.00000094380958
C        -2.70253464955512   -1.42555889815012    0.00000216870304
H        -3.12309004017101   -0.95847627642525    0.89470482807541
H        -3.12309417696673   -0.95847834921006   -0.89469965734343
H        -2.93160902017673   -2.48875997714325    0.00000388400856
H        -2.46417702102754    1.10569295114530   -0.00000059673913
H        -1.23708307840764    3.21912699675263    0.00000051099473

          :  Hamiltonian                  GFN2-xTB          :
         :: gradient norm              0.000260715718 Eh/a0 ::
         :: HOMO-LUMO gap              4.083333727196 eV    ::
         :: SCC energy               -30.757133451166 Eh    ::
         :: -> dispersion             -0.015265496060 Eh    ::
         :: -> Gsolv                  -0.006803074120 Eh    ::
         :: repulsion energy           0.411474680565 Eh    ::

    * Orbital Energies and Occupations

         #    Occupation            Energy/Eh            Energy/eV
      -------------------------------------------------------------
         1        2.0000           -0.7160022             -19.4834
       ...           ...                  ...                  ...
        15        2.0000           -0.5195349             -14.1373
        16        2.0000           -0.5003596             -13.6155
        17        2.0000           -0.4949083             -13.4671
        18        2.0000           -0.4854486             -13.2097
        19        2.0000           -0.4775559             -12.9950
        20        2.0000           -0.4617863             -12.5658
        21        2.0000           -0.4599055             -12.5147
        22        2.0000           -0.4503677             -12.2551
        23        2.0000           -0.4441135             -12.0849
        24        2.0000           -0.4328635             -11.7788
        25        2.0000           -0.4257569             -11.5854
        26        2.0000           -0.3948099             -10.7433
        27        2.0000           -0.3673273              -9.9955 (HOMO)
        28                         -0.2172675              -5.9121 (LUMO)
        29                         -0.2127154              -5.7883
        30                         -0.0869418              -2.3658
        31                          0.0160440               0.4366
        32                          0.0353183               0.9611
        33                          0.1151481               3.1333
        34                          0.1157849               3.1507
        35                          0.1247519               3.3947
        36                          0.1352487               3.6803
        37                          0.1685054               4.5853
        38                          0.1765985               4.8055
       ...                                ...                  ...
        50                          0.6786732              18.4676
      -------------------------------------------------------------
                  HL-Gap            0.1500598 Eh            4.0833 eV

     #   Z          covCN         q      C6AA      α(0)
     1   6 C        2.919    -0.051    29.256     8.870
     2   6 C        2.917    -0.075    29.873     8.963
     3   6 C        2.863     0.118    25.402     8.261
     4   6 C        2.863     0.118    25.402     8.261
     5   6 C        2.917    -0.075    29.873     8.963
     6   6 C        2.919    -0.051    29.256     8.870
     7   1 H        0.926     0.051     2.309     2.376
     8   1 H        0.926     0.046     2.369     2.407
     9   8 O        1.704    -0.301    19.004     5.886
    10   6 C        3.642     0.022    20.547     6.517
    11   1 H        0.924     0.054     2.267     2.355
    12   1 H        0.925     0.080     1.974     2.197
    13   1 H        0.924     0.054     2.267     2.355
    14   8 O        1.704    -0.301    19.004     5.886
    15   6 C        3.642     0.022    20.547     6.517
    16   1 H        0.924     0.054     2.267     2.355
    17   1 H        0.924     0.054     2.267     2.355
    18   1 H        0.925     0.080     1.974     2.197
    19   1 H        0.926     0.051     2.309     2.376
    20   1 H        0.926     0.046     2.369     2.407

Wiberg/Mayer (AO) data.
largest (>0.10) Wiberg bond orders for each atom

     #   Z sym  total        # sym  WBO       # sym  WBO       # sym  WBO
 ---------------------------------------------------------------------------
     1   6 C    3.990 --     6 C    1.465     2 C    1.403    20 H    0.970
     2   6 C    3.985 --     3 C    1.413     1 C    1.403    19 H    0.964
     3   6 C    3.933 --     2 C    1.413     4 C    1.269    14 O    1.052
     4   6 C    3.933 --     5 C    1.413     3 C    1.269     9 O    1.052
     5   6 C    3.985 --     4 C    1.413     6 C    1.403     7 H    0.964
     6   6 C    3.990 --     1 C    1.465     5 C    1.403     8 H    0.970
     7   1 H    0.997 --     5 C    0.964
     8   1 H    0.998 --     6 C    0.970
     9   8 O    2.207 --     4 C    1.052    10 C    0.972
    10   6 C    3.931 --    12 H    0.977    11 H    0.976    13 H    0.976
                             9 O    0.972
    11   1 H    0.997 --    10 C    0.976
    12   1 H    0.993 --    10 C    0.977
    13   1 H    0.997 --    10 C    0.976
    14   8 O    2.207 --     3 C    1.052    15 C    0.972
    15   6 C    3.931 --    18 H    0.977    16 H    0.976    17 H    0.976
                            14 O    0.972
    16   1 H    0.997 --    15 C    0.976
    17   1 H    0.997 --    15 C    0.976
    18   1 H    0.993 --    15 C    0.977
    19   1 H    0.997 --     2 C    0.964
    20   1 H    0.998 --     1 C    0.970
 ---------------------------------------------------------------------------

molecular dipole:
                 x           y           z       tot (Debye)
 q only:       -0.000       0.242       0.000
   full:       -0.000       0.324       0.000       0.823

 projected vibrational frequencies (cm⁻¹)
eigval :       -0.00    -0.00     0.00     0.00     0.00     0.00
eigval :       81.92    99.30   155.38   171.81   224.11   251.24
eigval :      269.32   301.91   360.12   442.79   455.47   529.61
eigval :      560.50   562.89   669.41   772.73   774.56   791.25
eigval :      848.11   883.64   910.72  1015.05  1044.42  1100.88
eigval :     1113.95  1114.13  1117.34  1136.41  1148.36  1182.30
eigval :     1198.92  1249.95  1259.25  1353.63  1387.31  1388.88
eigval :     1438.23  1459.15  1459.69  1467.37  1471.73  1477.99
eigval :     1582.40  1589.21  2938.42  2938.72  2951.19  2952.02
eigval :     3034.01  3034.22  3088.59  3098.04  3112.94  3116.42

   temp. (K)  partition function   enthalpy   heat capacity  entropy
                                   cal/mol     cal/K/mol   cal/K/mol   J/K/mol
 298.15  VIB   250.                 4370.579     30.871     25.495
         ROT  0.334E+06              888.752      2.981     28.257
         INT  0.834E+08             5259.331     33.852     53.752
         TR   0.157E+28             1481.254      4.968     40.663
         TOT                        6740.5849    38.8201    94.4156   395.0350

       T/K    H(0)-H(T)+PV         H(T)/Eh          T*S/Eh         G(T)/Eh
   ------------------------------------------------------------------------
    298.15    0.107418E-01    0.170528E+00    0.448599E-01    0.125668E+00
   ------------------------------------------------------------------------

         :::::::::::::::::::::::::::::::::::::::::::::::::::::
         ::                  THERMODYNAMIC                  ::
         :::::::::::::::::::::::::::::::::::::::::::::::::::::
         :: total free energy         -30.219945359630 Eh   ::
         ::.................................................::
         :: total energy              -30.345613156153 Eh   ::
         :: zero point energy           0.159785898270 Eh   ::
         :: G(RRHO) w/o ZPVE           -0.034118101746 Eh   ::
         :: G(RRHO) contrib.            0.125667796524 Eh   ::
         :::::::::::::::::::::::::::::::::::::::::::::::::::::

           -------------------------------------------------
          | TOTAL ENERGY              -30.345613156153 Eh   |
          | TOTAL ENTHALPY            -30.175085452041 Eh   |
          | TOTAL FREE ENERGY         -30.219945359630 Eh   |
          | GRADIENT NORM               0.000260631062 Eh/α |
          | HOMO-LUMO GAP               4.083336188134 eV   |
           -------------------------------------------------

 * finished run on 2021/11/15 at 09:36:22.538
