   * xtb version 6.4.1 (afa7bdf) compiled by 'ehlert@majestix' on 2021-06-10
          program call               : xtb 43_L-tyrosine.xyz --gfn2 --chrg 0 --uhf 0 --alpb water --ohess -P 1
          number of atoms            :                    24
          number of electrons        :                    70
          charge                     :                     0

   ID    Z sym.   atoms
    1    8 O      1-3
    2    7 N      4
    3    6 C      5-13
    4    1 H      14-24

        Solvent                        water
        Solvent mass                       1.8000E+01 g/mol
          :  Hamiltonian                  GFN2-xTB          :
 * total energy  :   -40.0179021 Eh     change       -0.1039190E-08 Eh
 * total energy  :   -40.0200936 Eh     change       -0.2191446E-02 Eh
 * total energy  :   -40.0204979 Eh     change       -0.4043705E-03 Eh
 * total energy  :   -40.0207902 Eh     change       -0.2923127E-03 Eh
 * total energy  :   -40.0208900 Eh     change       -0.9978650E-04 Eh
 * total energy  :   -40.0209252 Eh     change       -0.3513385E-04 Eh
 * total energy  :   -40.0209392 Eh     change       -0.1406609E-04 Eh
 * total energy  :   -40.0209451 Eh     change       -0.5848429E-05 Eh
 * total energy  :   -40.0209494 Eh     change       -0.4279195E-05 Eh
   *** GEOMETRY OPTIMIZATION CONVERGED AFTER 9 ITERATIONS ***

 final structure:
================
24
 xtb: 6.4.1 (afa7bdf)
O        -3.70121212742428    1.34727174966774   -0.30923481485566
O         4.57693777344709   -0.03494432708815    0.45671356238918
O        -3.95728746650101   -0.82086475000972    0.19458712222506
N        -1.62644239687633   -1.30638209649316    0.90904140782181
C        -0.92227177235311    0.34090401430345   -0.81714260127853
C        -1.77359780765774    0.08214597239731    0.42607406773482
C         0.54716519749862    0.23696861969193   -0.51126711799473
C         1.19209475420976    1.24131268603484    0.20350819003260
C         1.28307977077926   -0.87204867215532   -0.90558052377440
C         2.53058042598584    1.14019046265907    0.51990740761685
C         2.62791638327481   -0.98381928172460   -0.59746140534388
C        -3.30846720912464    0.24067031433287    0.06133438545375
C         3.26085681617977    0.02191337706737    0.12179477081820
H        -1.17175852035372    1.34116997628660   -1.17582385435464
H        -1.20420020496230   -0.36815150185127   -1.59783328155737
H        -1.53258825975459    0.80784157355321    1.20267827298512
H         0.63795226394272    2.11664274687235    0.50782928830106
H         0.81296827834619   -1.65445495242679   -1.48360603334589
H         3.18463645681243   -1.85093347469980   -0.92110715202244
H        -0.94401562867851   -1.83413926304889    0.35918874013337
H        -2.62280326800200   -1.66587442185263    0.73540433210219
H         4.97866127318656   -0.85233603174760    0.12578613024121
H        -1.39928639886138   -1.37214621768350    1.90213995715544
H         3.03606466688658    1.91806949791469    1.06979714951691

          :  Hamiltonian                  GFN2-xTB          :
         :: gradient norm              0.000480847405 Eh/a0 ::
         :: HOMO-LUMO gap              4.115372387359 eV    ::
         :: SCC energy               -40.525396358562 Eh    ::
         :: -> dispersion             -0.020615077351 Eh    ::
         :: -> Gsolv                  -0.070190408690 Eh    ::
         :: repulsion energy           0.504386626300 Eh    ::

    * Orbital Energies and Occupations

         #    Occupation            Energy/Eh            Energy/eV
      -------------------------------------------------------------
         1        2.0000           -0.7089954             -19.2927
       ...           ...                  ...                  ...
        23        2.0000           -0.4920981             -13.3907
        24        2.0000           -0.4849381             -13.1958
        25        2.0000           -0.4814135             -13.0999
        26        2.0000           -0.4779315             -13.0052
        27        2.0000           -0.4546309             -12.3711
        28        2.0000           -0.4543053             -12.3623
        29        2.0000           -0.4437010             -12.0737
        30        2.0000           -0.4223774             -11.4935
        31        2.0000           -0.4195913             -11.4177
        32        2.0000           -0.4089171             -11.1272
        33        2.0000           -0.4083772             -11.1125
        34        2.0000           -0.3867462             -10.5239
        35        2.0000           -0.3780054             -10.2861 (HOMO)
        36                         -0.2267682              -6.1707 (LUMO)
        37                         -0.2181811              -5.9370
        38                         -0.1891907              -5.1481
        39                         -0.0939341              -2.5561
        40                         -0.0330125              -0.8983
        41                          0.0456090               1.2411
        42                          0.0608319               1.6553
        43                          0.0732161               1.9923
        44                          0.0935297               2.5451
        45                          0.1154086               3.1404
        46                          0.1196961               3.2571
       ...                                ...                  ...
        63                          0.6611140              17.9898
      -------------------------------------------------------------
                  HL-Gap            0.1512372 Eh            4.1154 eV

     #   Z          covCN         q      C6AA      α(0)
     1   8 O        0.856    -0.607    26.293     6.875
     2   8 O        1.659    -0.460    22.041     6.338
     3   8 O        0.857    -0.605    26.246     6.869
     4   7 N        3.483    -0.187    25.042     7.432
     5   6 C        3.809    -0.073    21.888     6.660
     6   6 C        3.777    -0.013    20.835     6.503
     7   6 C        2.969    -0.003    28.086     8.693
     8   6 C        2.925    -0.042    29.040     8.837
     9   6 C        2.925    -0.050    29.230     8.866
    10   6 C        2.918    -0.060    29.499     8.906
    11   6 C        2.917    -0.077    29.925     8.970
    12   6 C        2.683     0.366    20.788     7.461
    13   6 C        2.846     0.145    24.843     8.169
    14   1 H        0.924     0.064     2.152     2.294
    15   1 H        0.924     0.059     2.216     2.328
    16   1 H        0.925     0.081     1.970     2.195
    17   1 H        0.926     0.040     2.443     2.444
    18   1 H        0.926     0.050     2.319     2.381
    19   1 H        0.926     0.048     2.346     2.395
    20   1 H        0.859     0.289     0.747     1.354
    21   1 H        0.854     0.312     0.678     1.291
    22   1 H        0.804     0.373     0.538     1.152
    23   1 H        0.860     0.303     0.704     1.314
    24   1 H        0.926     0.046     2.367     2.406

Wiberg/Mayer (AO) data.
largest (>0.10) Wiberg bond orders for each atom

     #   Z sym  total        # sym  WBO       # sym  WBO       # sym  WBO
 ---------------------------------------------------------------------------
     1   8 O    1.859 --    12 C    1.558     3 O    0.215
     2   8 O    2.077 --    13 C    1.076    22 H    0.841
     3   8 O    1.884 --    12 C    1.466     1 O    0.215
     4   7 N    3.630 --     6 C    0.970    23 H    0.897    20 H    0.897
                            21 H    0.795
     5   6 C    3.989 --     7 C    1.007     6 C    0.981    15 H    0.971
                            14 H    0.961
     6   6 C    3.935 --     5 C    0.981     4 N    0.970    16 H    0.958
                            12 C    0.876
     7   6 C    3.988 --     9 C    1.416     8 C    1.394     5 C    1.007
     8   6 C    3.991 --    10 C    1.470     7 C    1.394    17 H    0.968
                            11 C    0.105
     9   6 C    3.989 --    11 C    1.441     7 C    1.416    18 H    0.966
                            10 C    0.106
    10   6 C    3.989 --     8 C    1.470    13 C    1.355    24 H    0.969
                             9 C    0.106
    11   6 C    3.986 --     9 C    1.441    13 C    1.377    19 H    0.966
                             8 C    0.105
    12   6 C    3.932 --     1 O    1.558     3 O    1.466     6 C    0.876
    13   6 C    3.937 --    11 C    1.377    10 C    1.355     2 O    1.076
    14   1 H    0.995 --     5 C    0.961
    15   1 H    0.996 --     5 C    0.971
    16   1 H    0.993 --     6 C    0.958
    17   1 H    0.998 --     8 C    0.968
    18   1 H    0.997 --     9 C    0.966
    19   1 H    0.997 --    11 C    0.966
    20   1 H    0.916 --     4 N    0.897
    21   1 H    0.902 --     4 N    0.795
    22   1 H    0.861 --     2 O    0.841
    23   1 H    0.908 --     4 N    0.897
    24   1 H    0.998 --    10 C    0.969
 ---------------------------------------------------------------------------

molecular dipole:
                 x           y           z       tot (Debye)
 q only:        4.067      -3.116       1.273
   full:        4.243      -3.208       1.258      13.894

 projected vibrational frequencies (cm⁻¹)
eigval :       -0.00    -0.00     0.00     0.00     0.00     0.00
eigval :       27.10    38.11    58.46    76.03   149.75   176.37
eigval :      291.97   320.00   343.83   361.09   375.87   401.06
eigval :      412.47   451.66   466.38   509.30   544.21   613.93
eigval :      644.79   681.02   709.37   774.79   806.75   849.03
eigval :      867.26   876.96   895.79   906.60   926.08   928.63
eigval :     1012.36  1015.71  1046.91  1107.09  1116.95  1136.45
eigval :     1151.41  1185.82  1191.69  1207.10  1252.82  1273.30
eigval :     1279.34  1289.21  1317.52  1327.76  1339.77  1389.57
eigval :     1398.64  1427.01  1475.42  1492.04  1584.46  1609.19
eigval :     1731.08  2541.63  2983.35  2999.40  3009.51  3069.54
eigval :     3082.03  3084.16  3106.13  3292.63  3322.39  3461.02

   temp. (K)  partition function   enthalpy   heat capacity  entropy
                                   cal/mol     cal/K/mol   cal/K/mol   J/K/mol
 298.15  VIB  0.193E+05             5914.287     40.539     36.033
         ROT  0.168E+07              888.752      2.981     31.463
         INT  0.323E+11             6803.039     43.520     67.496
         TR   0.236E+28             1481.254      4.968     41.471
         TOT                        8284.2933    48.4877   108.9664   455.9155

       T/K    H(0)-H(T)+PV         H(T)/Eh          T*S/Eh         G(T)/Eh
   ------------------------------------------------------------------------
    298.15    0.132019E-01    0.199545E+00    0.517735E-01    0.147771E+00
   ------------------------------------------------------------------------

         :::::::::::::::::::::::::::::::::::::::::::::::::::::
         ::                  THERMODYNAMIC                  ::
         :::::::::::::::::::::::::::::::::::::::::::::::::::::
         :: total free energy         -39.873178095864 Eh   ::
         ::.................................................::
         :: total energy              -40.020949357405 Eh   ::
         :: zero point energy           0.186342862714 Eh   ::
         :: G(RRHO) w/o ZPVE           -0.038571601174 Eh   ::
         :: G(RRHO) contrib.            0.147771261540 Eh   ::
         :::::::::::::::::::::::::::::::::::::::::::::::::::::

           -------------------------------------------------
          | TOTAL ENERGY              -40.020949357405 Eh   |
          | TOTAL ENTHALPY            -39.821404633041 Eh   |
          | TOTAL FREE ENERGY         -39.873178095864 Eh   |
          | GRADIENT NORM               0.000480682229 Eh/α |
          | HOMO-LUMO GAP               4.115373464175 eV   |
           -------------------------------------------------

 * finished run on 2021/11/15 at 09:36:29.088
