   * xtb version 6.4.1 (afa7bdf) compiled by 'ehlert@majestix' on 2021-06-10
          program call               : xtb 29_pyrrolidine.xyz --gfn2 --chrg 0 --uhf 0 --alpb water --ohess -P 1
          number of atoms            :                    14
          number of electrons        :                    30
          charge                     :                     0

   ID    Z sym.   atoms
    1    6 C      1-4
    2    1 H      5-12, 14
    3    7 N      13

        Solvent                        water
        Solvent mass                       1.8000E+01 g/mol
          :  Hamiltonian                  GFN2-xTB          :
 * total energy  :   -16.0732409 Eh     change       -0.3413447E-10 Eh
 * total energy  :   -16.0741484 Eh     change       -0.9075332E-03 Eh
 * total energy  :   -16.0742931 Eh     change       -0.1447531E-03 Eh
 * total energy  :   -16.0743180 Eh     change       -0.2485466E-04 Eh
 * total energy  :   -16.0743211 Eh     change       -0.3061209E-05 Eh
   *** GEOMETRY OPTIMIZATION CONVERGED AFTER 5 ITERATIONS ***

 final structure:
================
14
 xtb: 6.4.1 (afa7bdf)
C         0.76991016951608    1.02839130606774   -0.07324914263746
C        -0.76935646649057    1.02876690487882   -0.07352753084335
C        -1.14251605362164   -0.44643226864068    0.19544957962809
C         1.14230142352803   -0.44711721126395    0.19524408214924
H         1.15769118709929    1.34766091909617   -1.04079134230943
H         1.18188911880063    1.68471914324218    0.69027054683202
H        -1.15660515999709    1.34772920262406   -1.04138967056238
H        -1.18133259384335    1.68566270221762    0.68950218681246
H        -1.28151804025598   -0.60640943103134    1.26865720850048
H        -2.04760034244197   -0.75976093462305   -0.32239099689453
H         1.28158177546755   -0.60742158519184    1.26836807289185
H         2.04704891189951   -0.76082430762679   -0.32295626253747
N        -0.00038607865261   -1.24958901843542   -0.21921741635038
H        -0.00050985100788   -1.32072642131350   -1.23318731467916

          :  Hamiltonian                  GFN2-xTB          :
         :: gradient norm              0.000636553198 Eh/a0 ::
         :: HOMO-LUMO gap             10.953746328095 eV    ::
         :: SCC energy               -16.284971396394 Eh    ::
         :: -> dispersion             -0.007499373239 Eh    ::
         :: -> Gsolv                  -0.002823405082 Eh    ::
         :: repulsion energy           0.210643001345 Eh    ::

    * Orbital Energies and Occupations

         #    Occupation            Energy/Eh            Energy/eV
      -------------------------------------------------------------
         1        2.0000           -0.6458448             -17.5743
       ...           ...                  ...                  ...
         3        2.0000           -0.6046207             -16.4526
         4        2.0000           -0.5619372             -15.2911
         5        2.0000           -0.5618046             -15.2875
         6        2.0000           -0.5365956             -14.6015
         7        2.0000           -0.5132682             -13.9667
         8        2.0000           -0.4960762             -13.4989
         9        2.0000           -0.4947851             -13.4638
        10        2.0000           -0.4627214             -12.5913
        11        2.0000           -0.4510474             -12.2736
        12        2.0000           -0.4419968             -12.0273
        13        2.0000           -0.4362392             -11.8707
        14        2.0000           -0.4219213             -11.4811
        15        2.0000           -0.3618338              -9.8460 (HOMO)
        16                          0.0407090               1.1077 (LUMO)
        17                          0.0598588               1.6288
        18                          0.0920875               2.5058
        19                          0.1057460               2.8775
        20                          0.1188417               3.2338
        21                          0.1464794               3.9859
        22                          0.1676868               4.5630
        23                          0.1679438               4.5700
        24                          0.1865796               5.0771
        25                          0.2064097               5.6167
        26                          0.2157683               5.8714
       ...                                ...                  ...
        29                          0.3464594               9.4276
      -------------------------------------------------------------
                  HL-Gap            0.4025428 Eh           10.9537 eV

     #   Z          covCN         q      C6AA      α(0)
     1   6 C        3.813    -0.069    21.804     6.646
     2   6 C        3.813    -0.069    21.804     6.646
     3   6 C        3.804     0.007    20.456     6.439
     4   6 C        3.804     0.007    20.456     6.439
     5   1 H        0.925     0.030     2.593     2.518
     6   1 H        0.925     0.034     2.537     2.491
     7   1 H        0.925     0.030     2.593     2.518
     8   1 H        0.925     0.034     2.537     2.491
     9   1 H        0.924     0.035     2.512     2.478
    10   1 H        0.925     0.031     2.569     2.507
    11   1 H        0.924     0.035     2.512     2.478
    12   1 H        0.925     0.031     2.569     2.507
    13   7 N        2.685    -0.293    27.555     7.796
    14   1 H        0.860     0.157     1.354     1.823

Wiberg/Mayer (AO) data.
largest (>0.10) Wiberg bond orders for each atom

     #   Z sym  total        # sym  WBO       # sym  WBO       # sym  WBO
 ---------------------------------------------------------------------------
     1   6 C    3.997 --     2 C    1.006     4 C    0.989     5 H    0.984
                             6 H    0.983
     2   6 C    3.997 --     1 C    1.006     3 C    0.989     7 H    0.984
                             8 H    0.983
     3   6 C    3.986 --    13 N    1.016     2 C    0.989    10 H    0.980
                             9 H    0.976
     4   6 C    3.986 --    13 N    1.016     1 C    0.989    12 H    0.980
                            11 H    0.976
     5   1 H    0.999 --     1 C    0.984
     6   1 H    0.999 --     1 C    0.983
     7   1 H    0.999 --     2 C    0.984
     8   1 H    0.999 --     2 C    0.983
     9   1 H    0.999 --     3 C    0.976
    10   1 H    0.999 --     3 C    0.980
    11   1 H    0.999 --     4 C    0.976
    12   1 H    0.999 --     4 C    0.980
    13   7 N    3.055 --     4 C    1.016     3 C    1.016    14 H    0.954
    14   1 H    0.975 --    13 N    0.954
 ---------------------------------------------------------------------------

molecular dipole:
                 x           y           z       tot (Debye)
 q only:        0.000       0.215      -0.118
   full:        0.000       0.501      -0.305       1.492

 projected vibrational frequencies (cm⁻¹)
eigval :       -0.00    -0.00    -0.00     0.00     0.00     0.00
eigval :       71.80   291.44   611.27   639.20   813.71   860.71
eigval :      886.21   948.97   973.91   973.94  1008.89  1046.64
eigval :     1087.58  1127.22  1177.69  1180.34  1209.93  1247.53
eigval :     1273.46  1290.23  1294.53  1304.10  1385.67  1474.23
eigval :     1485.05  1487.19  1505.67  2943.21  2944.58  2977.50
eigval :     2991.83  3002.73  3005.66  3010.70  3020.66  3353.95

   temp. (K)  partition function   enthalpy   heat capacity  entropy
                                   cal/mol     cal/K/mol   cal/K/mol   J/K/mol
 298.15  VIB   5.68                 1312.342     11.662      7.677
         ROT  0.638E+05              888.752      2.981     24.967
         INT  0.362E+06             2201.094     14.643     32.643
         TR   0.580E+27             1481.254      4.968     38.685
         TOT                        3682.3479    19.6115    71.3281   298.4367

       T/K    H(0)-H(T)+PV         H(T)/Eh          T*S/Eh         G(T)/Eh
   ------------------------------------------------------------------------
    298.15    0.586819E-02    0.133236E+00    0.338903E-01    0.993456E-01
   ------------------------------------------------------------------------

         :::::::::::::::::::::::::::::::::::::::::::::::::::::
         ::                  THERMODYNAMIC                  ::
         :::::::::::::::::::::::::::::::::::::::::::::::::::::
         :: total free energy         -15.974975496528 Eh   ::
         ::.................................................::
         :: total energy              -16.074321054460 Eh   ::
         :: zero point energy           0.127367637821 Eh   ::
         :: G(RRHO) w/o ZPVE           -0.028022079890 Eh   ::
         :: G(RRHO) contrib.            0.099345557932 Eh   ::
         :::::::::::::::::::::::::::::::::::::::::::::::::::::

           -------------------------------------------------
          | TOTAL ENERGY              -16.074321054460 Eh   |
          | TOTAL ENTHALPY            -15.941085221719 Eh   |
          | TOTAL FREE ENERGY         -15.974975496528 Eh   |
          | GRADIENT NORM               0.000636549874 Eh/α |
          | HOMO-LUMO GAP              10.953746543975 eV   |
           -------------------------------------------------

 * finished run on 2021/11/15 at 09:36:20.306
