   * xtb version 6.4.1 (afa7bdf) compiled by 'ehlert@majestix' on 2021-06-10
          program call               : xtb 39_3-amino-L-tyrosine.xyz --gfn2 --chrg 0 --uhf 0 --alpb water --ohess -P 1
          number of atoms            :                    26
          number of electrons        :                    76
          charge                     :                     0

   ID    Z sym.   atoms
    1    8 O      1-3
    2    7 N      4, 5
    3    6 C      6-14
    4    1 H      15-26

        Solvent                        water
        Solvent mass                       1.8000E+01 g/mol
          :  Hamiltonian                  GFN2-xTB          :
 * total energy  :   -43.4568987 Eh     change       -0.4533760E-09 Eh
 * total energy  :   -43.4593987 Eh     change       -0.2500099E-02 Eh
 * total energy  :   -43.4599284 Eh     change       -0.5296091E-03 Eh
 * total energy  :   -43.4605291 Eh     change       -0.6006962E-03 Eh
 * total energy  :   -43.4606753 Eh     change       -0.1462269E-03 Eh
 * total energy  :   -43.4607587 Eh     change       -0.8344414E-04 Eh
 * total energy  :   -43.4607799 Eh     change       -0.2118694E-04 Eh
 * total energy  :   -43.4607972 Eh     change       -0.1729057E-04 Eh
 * total energy  :   -43.4608056 Eh     change       -0.8370541E-05 Eh
 * total energy  :   -43.4608153 Eh     change       -0.9683271E-05 Eh
 * total energy  :   -43.4608192 Eh     change       -0.3917201E-05 Eh
 * total energy  :   -43.4608221 Eh     change       -0.2953582E-05 Eh
   *** GEOMETRY OPTIMIZATION CONVERGED AFTER 12 ITERATIONS ***

 final structure:
================
26
 xtb: 6.4.1 (afa7bdf)
O         3.90962051840010    1.36752852216804    0.52552345123168
O        -4.28953275695664   -0.53237907735867   -0.35495529114454
O         4.23412718561617   -0.67005301726356   -0.34886836855403
N         1.91676290210147   -1.07796575239020   -1.16932732795472
N        -3.15898766493921    1.93297351054422   -0.45718855286791
C         1.19951788197429    0.08873597628070    0.89856351026505
C         2.01647365727415    0.17466169301132   -0.39261295074955
C        -0.26530797732763   -0.09152083281275    0.60485114606513
C        -1.02986818522860    0.99137360148493    0.19013559225433
C        -0.85782886889317   -1.34173332003167    0.69356727168376
C        -2.37793863160713    0.85617792470812   -0.12280540013265
C        -2.20231874802124   -1.50210652420694    0.38098360429152
C         3.54976331875478    0.32716460752013   -0.02783146216497
C        -2.96173251763812   -0.42443963657088   -0.02430911739011
H         1.37472678425445    1.00892631071275    1.45787908395792
H         1.57472209878970   -0.74064490155423    1.50168279055503
H         1.70689459521677    1.04183599450666   -0.97479567602539
H        -0.57584184865801    1.96930993319531    0.12413787815409
H        -0.29287256145733   -2.19414994718152    1.04048018965072
H        -2.65768614106794   -2.47880073719055    0.45984376666225
H         1.22402376078501   -1.71750249840797   -0.76809754246558
H         2.91233952404207   -1.45000878826749   -1.05124191368544
H        -2.68824325072486    2.75694429415921   -0.78747952955246
H        -4.04381590220089    1.71470781601276   -0.88380540554907
H        -4.59057567716585   -1.44242885063104   -0.22599038530708
H         1.71973750467755   -0.92806930043672   -2.16002436122789

          :  Hamiltonian                  GFN2-xTB          :
         :: gradient norm              0.000593502050 Eh/a0 ::
         :: HOMO-LUMO gap              3.697965523670 eV    ::
         :: SCC energy               -44.001428744289 Eh    ::
         :: -> dispersion             -0.023037003260 Eh    ::
         :: -> Gsolv                  -0.073580069291 Eh    ::
         :: repulsion energy           0.540515603941 Eh    ::

    * Orbital Energies and Occupations

         #    Occupation            Energy/Eh            Energy/eV
      -------------------------------------------------------------
         1        2.0000           -0.7022472             -19.1091
       ...           ...                  ...                  ...
        26        2.0000           -0.4851675             -13.2021
        27        2.0000           -0.4755932             -12.9416
        28        2.0000           -0.4724415             -12.8558
        29        2.0000           -0.4600248             -12.5179
        30        2.0000           -0.4489489             -12.2165
        31        2.0000           -0.4371754             -11.8961
        32        2.0000           -0.4323676             -11.7653
        33        2.0000           -0.4233247             -11.5193
        34        2.0000           -0.4182261             -11.3805
        35        2.0000           -0.4073282             -11.0840
        36        2.0000           -0.3871920             -10.5360
        37        2.0000           -0.3778987             -10.2831
        38        2.0000           -0.3481419              -9.4734 (HOMO)
        39                         -0.2122442              -5.7755 (LUMO)
        40                         -0.2043801              -5.5615
        41                         -0.1874699              -5.1013
        42                         -0.0821112              -2.2344
        43                         -0.0315075              -0.8574
        44                          0.0428417               1.1658
        45                          0.0490385               1.3344
        46                          0.0637864               1.7357
        47                          0.0733842               1.9969
        48                          0.0959231               2.6102
        49                          0.1181422               3.2148
       ...                                ...                  ...
        68                          0.6690236              18.2051
      -------------------------------------------------------------
                  HL-Gap            0.1358978 Eh            3.6980 eV

     #   Z          covCN         q      C6AA      α(0)
     1   8 O        0.856    -0.609    26.353     6.883
     2   8 O        1.658    -0.469    22.228     6.365
     3   8 O        0.857    -0.608    26.325     6.879
     4   7 N        3.484    -0.185    25.007     7.427
     5   7 N        2.641    -0.307    27.905     7.846
     6   6 C        3.810    -0.071    21.850     6.654
     7   6 C        3.777    -0.013    20.836     6.503
     8   6 C        2.968    -0.006    28.172     8.706
     9   6 C        2.928    -0.082    30.061     8.992
    10   6 C        2.923    -0.072    29.804     8.953
    11   6 C        2.895     0.062    26.619     8.459
    12   6 C        2.915    -0.081    30.031     8.986
    13   6 C        2.684     0.366    20.789     7.462
    14   6 C        2.850     0.110    25.561     8.286
    15   1 H        0.924     0.060     2.204     2.322
    16   1 H        0.924     0.053     2.286     2.365
    17   1 H        0.925     0.080     1.976     2.198
    18   1 H        0.926     0.032     2.555     2.500
    19   1 H        0.926     0.036     2.506     2.476
    20   1 H        0.926     0.038     2.480     2.463
    21   1 H        0.859     0.288     0.752     1.358
    22   1 H        0.854     0.311     0.683     1.295
    23   1 H        0.860     0.199     1.111     1.651
    24   1 H        0.860     0.205     1.082     1.629
    25   1 H        0.805     0.364     0.558     1.173
    26   1 H        0.860     0.303     0.703     1.314

Wiberg/Mayer (AO) data.
largest (>0.10) Wiberg bond orders for each atom

     #   Z sym  total        # sym  WBO       # sym  WBO       # sym  WBO
 ---------------------------------------------------------------------------
     1   8 O    1.856 --    13 C    1.555     3 O    0.215
     2   8 O    2.053 --    14 C    1.048    25 H    0.848
     3   8 O    1.878 --    13 C    1.467     1 O    0.215
     4   7 N    3.632 --     7 C    0.969    26 H    0.897    21 H    0.893
                            22 H    0.802
     5   7 N    3.270 --    11 C    1.186    23 H    0.941    24 H    0.938
     6   6 C    3.988 --     8 C    1.005     7 C    0.978    16 H    0.972
                            15 H    0.963
     7   6 C    3.935 --     6 C    0.978     4 N    0.969    17 H    0.960
                            13 C    0.878
     8   6 C    3.987 --    10 C    1.418     9 C    1.402     6 C    1.005
     9   6 C    3.983 --     8 C    1.402    11 C    1.371    18 H    0.967
    10   6 C    3.985 --     8 C    1.418    12 C    1.398    19 H    0.967
    11   6 C    3.976 --     9 C    1.371    14 C    1.260     5 N    1.186
    12   6 C    3.986 --    14 C    1.429    10 C    1.398    20 H    0.966
    13   6 C    3.932 --     1 O    1.555     3 O    1.467     7 C    0.878
    14   6 C    3.932 --    12 C    1.429    11 C    1.260     2 O    1.048
    15   1 H    0.996 --     6 C    0.963
    16   1 H    0.997 --     6 C    0.972
    17   1 H    0.994 --     7 C    0.960
    18   1 H    0.999 --     9 C    0.967
    19   1 H    0.999 --    10 C    0.967
    20   1 H    0.998 --    12 C    0.966
    21   1 H    0.917 --     4 N    0.893
    22   1 H    0.903 --     4 N    0.802
    23   1 H    0.960 --     5 N    0.941
    24   1 H    0.958 --     5 N    0.938
    25   1 H    0.868 --     2 O    0.848
    26   1 H    0.908 --     4 N    0.897
 ---------------------------------------------------------------------------

molecular dipole:
                 x           y           z       tot (Debye)
 q only:       -4.481      -2.209      -2.345
   full:       -4.617      -2.353      -2.514      14.639

 projected vibrational frequencies (cm⁻¹)
eigval :       -0.00    -0.00    -0.00     0.00     0.00     0.00
eigval :       32.15    40.07    54.30    79.00   144.34   164.10
eigval :      215.88   276.75   296.80   322.03   341.28   353.64
eigval :      361.40   376.98   406.36   431.76   440.40   464.32
eigval :      494.46   531.16   558.59   596.32   656.95   673.84
eigval :      701.00   760.22   794.09   812.35   850.35   861.43
eigval :      887.96   896.56   929.47   973.64  1014.37  1027.18
eigval :     1056.30  1097.55  1113.39  1149.62  1159.08  1185.70
eigval :     1193.26  1210.28  1250.19  1270.50  1288.87  1307.53
eigval :     1318.18  1325.27  1382.33  1393.11  1399.90  1431.78
eigval :     1465.11  1478.69  1519.11  1583.98  1597.99  1727.40
eigval :     2590.17  2980.01  3003.15  3013.35  3067.03  3076.45
eigval :     3081.79  3261.19  3323.92  3476.17  3491.65  3540.34

   temp. (K)  partition function   enthalpy   heat capacity  entropy
                                   cal/mol     cal/K/mol   cal/K/mol   J/K/mol
 298.15  VIB  0.482E+05             6903.348     46.983     41.449
         ROT  0.221E+07              888.752      2.981     32.014
         INT  0.107E+12             7792.100     49.964     73.463
         TR   0.266E+28             1481.254      4.968     41.708
         TOT                        9273.3541    54.9318   115.1713   481.8769

       T/K    H(0)-H(T)+PV         H(T)/Eh          T*S/Eh         G(T)/Eh
   ------------------------------------------------------------------------
    298.15    0.147780E-01    0.216696E+00    0.547216E-01    0.161975E+00
   ------------------------------------------------------------------------

         :::::::::::::::::::::::::::::::::::::::::::::::::::::
         ::                  THERMODYNAMIC                  ::
         :::::::::::::::::::::::::::::::::::::::::::::::::::::
         :: total free energy         -43.298847471225 Eh   ::
         ::.................................................::
         :: total energy              -43.460822132658 Eh   ::
         :: zero point energy           0.201918253308 Eh   ::
         :: G(RRHO) w/o ZPVE           -0.039943591875 Eh   ::
         :: G(RRHO) contrib.            0.161974661433 Eh   ::
         :::::::::::::::::::::::::::::::::::::::::::::::::::::

           -------------------------------------------------
          | TOTAL ENERGY              -43.460822132658 Eh   |
          | TOTAL ENTHALPY            -43.244125848985 Eh   |
          | TOTAL FREE ENERGY         -43.298847471225 Eh   |
          | GRADIENT NORM               0.000593493341 Eh/α |
          | HOMO-LUMO GAP               3.697966430528 eV   |
           -------------------------------------------------

 * finished run on 2021/11/15 at 09:36:26.833
