   * xtb version 6.4.1 (afa7bdf) compiled by 'ehlert@majestix' on 2021-06-10
          program call               : xtb 15_2,5-dimethylphenol.xyz --gfn2 --chrg 0 --uhf 0 --alpb water --ohess -P 1
          number of atoms            :                    19
          number of electrons        :                    48
          charge                     :                     0

   ID    Z sym.   atoms
    1    6 C      1-6, 12, 16
    2    1 H      7, 9-11, 13-15, 17-19
    3    8 O      8

        Solvent                        water
        Solvent mass                       1.8000E+01 g/mol
          :  Hamiltonian                  GFN2-xTB          :
 * total energy  :   -26.2990626 Eh     change       -0.4814318E-09 Eh
 * total energy  :   -26.3001217 Eh     change       -0.1059170E-02 Eh
 * total energy  :   -26.3001999 Eh     change       -0.7817200E-04 Eh
 * total energy  :   -26.3002056 Eh     change       -0.5724829E-05 Eh
 * total energy  :   -26.3002071 Eh     change       -0.1492878E-05 Eh
   *** GEOMETRY OPTIMIZATION CONVERGED AFTER 5 ITERATIONS ***

 final structure:
================
19
 xtb: 6.4.1 (afa7bdf)
C         1.12427584983713   -1.31078175405104   -0.00497859514278
C        -0.23850465733668   -1.54978827862970   -0.00079464778416
C        -1.15970403948816   -0.51367158274864    0.00132334257262
C        -0.66929561539552    0.79599633995510   -0.00058803458010
C         0.69841074415839    1.03433363261931   -0.00457300041191
C         1.61016435877388   -0.01080025777937   -0.00716953438340
H         1.03467750919371    2.06042136942418   -0.00648850287622
O        -1.49228980827971    1.88582291422742    0.00001151929991
H        -2.41890743689855    1.60476260374547    0.00026604935401
H        -0.59795366405631   -2.56879907287957   -0.00043622923486
H         1.81339935378334   -2.14224284111648   -0.00745113255353
C        -2.63801365880407   -0.78713368430881    0.00434290995972
H        -3.11173233279053   -0.36458675675425    0.89063893827853
H        -3.11493002585685   -0.36874655400788   -0.88222250438771
H        -2.81544144449270   -1.85882599739261    0.00709870688602
C         3.08161815127970    0.27351134291231    0.00540522979127
H         3.32306248560256    1.07061631007223   -0.69397209086843
H         3.38952269010449    0.59605326231047    0.99948104940159
H         3.64920054066588   -0.61468399559814   -0.25852647332057

          :  Hamiltonian                  GFN2-xTB          :
         :: gradient norm              0.000677869362 Eh/a0 ::
         :: HOMO-LUMO gap              4.309879544236 eV    ::
         :: SCC energy               -26.719452106887 Eh    ::
         :: -> dispersion             -0.014451381687 Eh    ::
         :: -> Gsolv                  -0.007545934593 Eh    ::
         :: repulsion energy           0.419223722472 Eh    ::

    * Orbital Energies and Occupations

         #    Occupation            Energy/Eh            Energy/eV
      -------------------------------------------------------------
         1        2.0000           -0.7026124             -19.1191
       ...           ...                  ...                  ...
        12        2.0000           -0.5032835             -13.6950
        13        2.0000           -0.4896105             -13.3230
        14        2.0000           -0.4823104             -13.1243
        15        2.0000           -0.4817293             -13.1085
        16        2.0000           -0.4742386             -12.9047
        17        2.0000           -0.4677915             -12.7293
        18        2.0000           -0.4643944             -12.6368
        19        2.0000           -0.4447693             -12.1028
        20        2.0000           -0.4386344             -11.9358
        21        2.0000           -0.4262441             -11.5987
        22        2.0000           -0.4160051             -11.3201
        23        2.0000           -0.3865204             -10.5178
        24        2.0000           -0.3713173             -10.1041 (HOMO)
        25                         -0.2129321              -5.7942 (LUMO)
        26                         -0.2048675              -5.5747
        27                         -0.0831767              -2.2634
        28                          0.0700449               1.9060
        29                          0.1014602               2.7609
        30                          0.1178220               3.2061
        31                          0.1513103               4.1174
        32                          0.1601554               4.3580
        33                          0.1699928               4.6257
        34                          0.1895246               5.1572
        35                          0.2054131               5.5896
       ...                                ...                  ...
        46                          0.6584941              17.9185
      -------------------------------------------------------------
                  HL-Gap            0.1583852 Eh            4.3099 eV

     #   Z          covCN         q      C6AA      α(0)
     1   6 C        2.923    -0.061    29.507     8.908
     2   6 C        2.925    -0.050    29.233     8.867
     3   6 C        2.963    -0.029    28.731     8.792
     4   6 C        2.849     0.131    25.134     8.217
     5   6 C        2.925    -0.075    29.872     8.963
     6   6 C        2.966     0.009    27.804     8.649
     7   1 H        0.926     0.040     2.443     2.444
     8   8 O        1.659    -0.458    21.999     6.332
     9   1 H        0.805     0.356     0.574     1.190
    10   1 H        0.926     0.035     2.523     2.484
    11   1 H        0.926     0.032     2.565     2.504
    12   6 C        3.756    -0.119    22.831     6.813
    13   1 H        0.925     0.051     2.302     2.373
    14   1 H        0.925     0.051     2.303     2.373
    15   1 H        0.925     0.051     2.305     2.374
    16   6 C        3.758    -0.121    22.876     6.819
    17   1 H        0.925     0.051     2.302     2.373
    18   1 H        0.925     0.056     2.246     2.344
    19   1 H        0.925     0.048     2.346     2.395

Wiberg/Mayer (AO) data.
largest (>0.10) Wiberg bond orders for each atom

     #   Z sym  total        # sym  WBO       # sym  WBO       # sym  WBO
 ---------------------------------------------------------------------------
     1   6 C    3.990 --     2 C    1.437     6 C    1.408    11 H    0.969
     2   6 C    3.991 --     1 C    1.437     3 C    1.425    10 H    0.968
                             5 C    0.103
     3   6 C    3.986 --     2 C    1.425     4 C    1.339    12 C    1.023
                             6 C    0.100
     4   6 C    3.936 --     5 C    1.387     3 C    1.339     8 O    1.063
     5   6 C    3.986 --     6 C    1.415     4 C    1.387     7 H    0.967
                             2 C    0.103
     6   6 C    3.989 --     5 C    1.415     1 C    1.408    16 C    1.026
                             3 C    0.100
     7   1 H    0.998 --     5 C    0.967
     8   8 O    2.072 --     4 C    1.063     9 H    0.847
     9   1 H    0.873 --     8 O    0.847
    10   1 H    0.999 --     2 C    0.968
    11   1 H    0.999 --     1 C    0.969
    12   6 C    3.995 --     3 C    1.023    15 H    0.983    13 H    0.971
                            14 H    0.971
    13   1 H    0.997 --    12 C    0.971
    14   1 H    0.997 --    12 C    0.971
    15   1 H    0.997 --    12 C    0.983
    16   6 C    3.995 --     6 C    1.026    19 H    0.984    17 H    0.977
                            18 H    0.968
    17   1 H    0.997 --    16 C    0.977
    18   1 H    0.996 --    16 C    0.968
    19   1 H    0.997 --    16 C    0.984
 ---------------------------------------------------------------------------

molecular dipole:
                 x           y           z       tot (Debye)
 q only:       -0.446      -0.340       0.014
   full:       -0.586      -0.426       0.021       1.841

 projected vibrational frequencies (cm⁻¹)
eigval :       -0.00    -0.00    -0.00    -0.00     0.00     0.00
eigval :      -20.83   107.73   137.67   212.21   278.82   286.49
eigval :      296.29   333.95   420.93   423.45   481.59   543.40
eigval :      555.38   662.00   722.63   783.25   812.20   876.58
eigval :      909.51   959.02  1002.24  1019.42  1027.63  1030.31
eigval :     1098.50  1134.98  1179.87  1211.00  1267.02  1304.41
eigval :     1338.09  1396.04  1398.98  1424.78  1475.52  1478.50
eigval :     1485.50  1486.75  1505.74  1582.72  1614.44  2988.56
eigval :     2998.58  3003.55  3031.93  3045.44  3053.85  3066.86
eigval :     3081.14  3089.51  3466.83

   temp. (K)  partition function   enthalpy   heat capacity  entropy
                                   cal/mol     cal/K/mol   cal/K/mol   J/K/mol
 298.15  VIB   49.3                 3552.576     26.868     19.635
         ROT  0.449E+06              888.752      2.981     28.846
         INT  0.221E+08             4441.329     29.849     48.481
         TR   0.131E+28             1481.254      4.968     40.296
         TOT                        5922.5827    34.8173    88.7770   371.4431

       T/K    H(0)-H(T)+PV         H(T)/Eh          T*S/Eh         G(T)/Eh
   ------------------------------------------------------------------------
    298.15    0.943824E-02    0.164563E+00    0.421808E-01    0.122382E+00
   ------------------------------------------------------------------------

         :::::::::::::::::::::::::::::::::::::::::::::::::::::
         ::                  THERMODYNAMIC                  ::
         :::::::::::::::::::::::::::::::::::::::::::::::::::::
         :: total free energy         -26.177825194210 Eh   ::
         ::.................................................::
         :: total energy              -26.300207121033 Eh   ::
         :: zero point energy           0.155124520918 Eh   ::
         :: G(RRHO) w/o ZPVE           -0.032742594095 Eh   ::
         :: G(RRHO) contrib.            0.122381926823 Eh   ::
         :::::::::::::::::::::::::::::::::::::::::::::::::::::

           -------------------------------------------------
          | TOTAL ENERGY              -26.300207121033 Eh   |
          | TOTAL ENTHALPY            -26.135644363758 Eh   |
          | TOTAL FREE ENERGY         -26.177825194210 Eh   |
          | GRADIENT NORM               0.000677670526 Eh/α |
          | HOMO-LUMO GAP               4.309881324076 eV   |
           -------------------------------------------------

 * finished run on 2021/11/15 at 09:36:15.089
