   * xtb version 6.4.1 (afa7bdf) compiled by 'ehlert@majestix' on 2021-06-10
          program call               : xtb 37_3,2-methoxy-phenoxyl-1,2-propanediol.xyz --gfn2 --chrg 0 --uhf 0 --alpb water --ohess -P 1
          number of atoms            :                    28
          number of electrons        :                    78
          charge                     :                     0

   ID    Z sym.   atoms
    1    8 O      1-4
    2    6 C      5-14
    3    1 H      15-28

        Solvent                        water
        Solvent mass                       1.8000E+01 g/mol
          :  Hamiltonian                  GFN2-xTB          :
 * total energy  :   -44.8037204 Eh     change       -0.2139586E-09 Eh
 * total energy  :   -44.8052032 Eh     change       -0.1482735E-02 Eh
 * total energy  :   -44.8055566 Eh     change       -0.3534862E-03 Eh
 * total energy  :   -44.8056509 Eh     change       -0.9423025E-04 Eh
 * total energy  :   -44.8057276 Eh     change       -0.7675139E-04 Eh
 * total energy  :   -44.8057716 Eh     change       -0.4399099E-04 Eh
 * total energy  :   -44.8058277 Eh     change       -0.5607215E-04 Eh
 * total energy  :   -44.8058945 Eh     change       -0.6680024E-04 Eh
 * total energy  :   -44.8059580 Eh     change       -0.6350643E-04 Eh
 * total energy  :   -44.8059991 Eh     change       -0.4112623E-04 Eh
 * total energy  :   -44.8060192 Eh     change       -0.2011520E-04 Eh
 * total energy  :   -44.8060288 Eh     change       -0.9569089E-05 Eh
 * total energy  :   -44.8060325 Eh     change       -0.3731018E-05 Eh
   *** GEOMETRY OPTIMIZATION CONVERGED AFTER 13 ITERATIONS ***

 final structure:
================
28
 xtb: 6.4.1 (afa7bdf)
O         0.30055318057410   -0.89115545302510   -0.75830160424788
O         1.80252970492763    0.24044961074954    1.34555806098659
O         4.27841985764315    0.34557804696520   -0.06698399301361
O        -0.38252646421869    1.61572268025607   -0.33642922474654
C         2.27631182297063   -0.86547708371826    0.60804434762123
C         1.11015066857225   -1.71323960005368    0.07245243216091
C         3.16928489165151   -0.37839261491342   -0.54306163496785
C        -0.99260744041519   -0.64964335992456   -0.33983161809980
C        -1.37894383511574    0.69164388156180   -0.17125726065965
C        -1.90833983094895   -1.66663558079397   -0.13374709642313
C        -2.69283426260140    0.98009702394482    0.16528520530194
C        -3.21495170444195   -1.36636234158408    0.21736539159945
C        -3.60305026831953   -0.04816736003943    0.35690759582949
C        -0.73100757208415    2.98826494521225   -0.30239397353565
H         2.86995078209727   -1.45826739264825    1.31062835697330
H         1.49710567476053   -2.54101269259479   -0.52830790847696
H         0.52693756290248   -2.10574155914728    0.91025271898431
H         2.56345732687927    0.24229186482256   -1.21796616297872
H         3.56791323233478   -1.22635441765335   -1.10093677385255
H        -1.59386569211362   -2.69111195565694   -0.26166675398434
H        -3.01284617046892    2.00068754711892    0.29566682459022
H         1.17969853061095    0.73021430098106    0.77873987860707
H        -3.92350570885603   -2.16400922823732    0.37246077467973
H        -4.62024528638174    0.19228321073298    0.62259172803731
H         3.96022192571334    0.96729587258106    0.60602141535043
H         0.18595351363246    3.52418725396971   -0.53511325872720
H        -1.08629195894433    3.27931855692288    0.68921905149645
H        -1.49037848036058    3.21786484417103   -1.05293551850458

          :  Hamiltonian                  GFN2-xTB          :
         :: gradient norm              0.000834556908 Eh/a0 ::
         :: HOMO-LUMO gap              4.135680554923 eV    ::
         :: SCC energy               -45.318136394403 Eh    ::
         :: -> dispersion             -0.023686629041 Eh    ::
         :: -> Gsolv                  -0.014955416328 Eh    ::
         :: repulsion energy           0.511921444897 Eh    ::

    * Orbital Energies and Occupations

         #    Occupation            Energy/Eh            Energy/eV
      -------------------------------------------------------------
         1        2.0000           -0.7252587             -19.7353
       ...           ...                  ...                  ...
        27        2.0000           -0.4867725             -13.2458
        28        2.0000           -0.4735745             -12.8866
        29        2.0000           -0.4705439             -12.8042
        30        2.0000           -0.4685014             -12.7486
        31        2.0000           -0.4658043             -12.6752
        32        2.0000           -0.4532120             -12.3325
        33        2.0000           -0.4482579             -12.1977
        34        2.0000           -0.4379494             -11.9172
        35        2.0000           -0.4312636             -11.7353
        36        2.0000           -0.4222318             -11.4895
        37        2.0000           -0.4071823             -11.0800
        38        2.0000           -0.3990201             -10.8579
        39        2.0000           -0.3819426             -10.3932 (HOMO)
        40                         -0.2299590              -6.2575 (LUMO)
        41                         -0.2227328              -6.0609
        42                         -0.0994283              -2.7056
        43                         -0.0048258              -0.1313
        44                          0.0176525               0.4803
        45                          0.0352221               0.9584
        46                          0.0512712               1.3952
        47                          0.0938747               2.5545
        48                          0.1084089               2.9500
        49                          0.1156575               3.1472
        50                          0.1210534               3.2940
       ...                                ...                  ...
        70                          0.6629877              18.0408
      -------------------------------------------------------------
                  HL-Gap            0.1519836 Eh            4.1357 eV

     #   Z          covCN         q      C6AA      α(0)
     1   8 O        1.703    -0.327    19.468     5.957
     2   8 O        1.654    -0.486    22.590     6.416
     3   8 O        1.655    -0.507    23.047     6.481
     4   8 O        1.704    -0.300    18.992     5.884
     5   6 C        3.723     0.093    19.141     6.248
     6   6 C        3.692     0.061    19.735     6.357
     7   6 C        3.675     0.066    19.690     6.358
     8   6 C        2.864     0.115    25.466     8.272
     9   6 C        2.862     0.121    25.334     8.250
    10   6 C        2.918    -0.062    29.539     8.913
    11   6 C        2.917    -0.071    29.782     8.949
    12   6 C        2.919    -0.047    29.179     8.858
    13   6 C        2.920    -0.043    29.079     8.843
    14   6 C        3.642     0.019    20.613     6.528
    15   1 H        0.924     0.058     2.217     2.328
    16   1 H        0.924     0.055     2.259     2.350
    17   1 H        0.924     0.054     2.276     2.359
    18   1 H        0.923     0.040     2.455     2.450
    19   1 H        0.924     0.051     2.311     2.377
    20   1 H        0.926     0.054     2.273     2.358
    21   1 H        0.926     0.059     2.205     2.322
    22   1 H        0.804     0.330     0.636     1.253
    23   1 H        0.926     0.055     2.260     2.351
    24   1 H        0.926     0.057     2.240     2.340
    25   1 H        0.804     0.357     0.571     1.187
    26   1 H        0.925     0.082     1.954     2.186
    27   1 H        0.924     0.059     2.211     2.325
    28   1 H        0.924     0.058     2.223     2.332

Wiberg/Mayer (AO) data.
largest (>0.10) Wiberg bond orders for each atom

     #   Z sym  total        # sym  WBO       # sym  WBO       # sym  WBO
 ---------------------------------------------------------------------------
     1   8 O    2.130 --     8 C    1.009     6 C    0.957
     2   8 O    1.944 --     5 C    0.997    22 H    0.858
     3   8 O    1.916 --     7 C    1.003    25 H    0.854
     4   8 O    2.212 --     9 C    1.050    14 C    0.966
     5   6 C    3.956 --     2 O    0.997     7 C    0.976     6 C    0.975
                            15 H    0.960
     6   6 C    3.943 --     5 C    0.975    17 H    0.970    16 H    0.969
                             1 O    0.957
     7   6 C    3.957 --     3 O    1.003     5 C    0.976    19 H    0.972
                            18 H    0.966
     8   6 C    3.931 --    10 C    1.417     9 C    1.299     1 O    1.009
                            13 C    0.101
     9   6 C    3.935 --    11 C    1.393     8 C    1.299     4 O    1.050
    10   6 C    3.988 --    12 C    1.420     8 C    1.417    20 H    0.966
                            11 C    0.100
    11   6 C    3.985 --    13 C    1.425     9 C    1.393    21 H    0.963
                            10 C    0.100
    12   6 C    3.990 --    13 C    1.449    10 C    1.420    23 H    0.969
    13   6 C    3.989 --    12 C    1.449    11 C    1.425    24 H    0.969
                             8 C    0.101
    14   6 C    3.927 --    28 H    0.977    26 H    0.977    27 H    0.976
                             4 O    0.966
    15   1 H    0.996 --     5 C    0.960
    16   1 H    0.997 --     6 C    0.969
    17   1 H    0.997 --     6 C    0.970
    18   1 H    0.998 --     7 C    0.966
    19   1 H    0.997 --     7 C    0.972
    20   1 H    0.996 --    10 C    0.966
    21   1 H    0.996 --    11 C    0.963
    22   1 H    0.891 --     2 O    0.858
    23   1 H    0.997 --    12 C    0.969
    24   1 H    0.997 --    13 C    0.969
    25   1 H    0.872 --     3 O    0.854
    26   1 H    0.993 --    14 C    0.977
    27   1 H    0.996 --    14 C    0.976
    28   1 H    0.997 --    14 C    0.977
 ---------------------------------------------------------------------------

molecular dipole:
                 x           y           z       tot (Debye)
 q only:       -1.371       0.384       0.227
   full:       -1.675       0.384       0.188       4.394

 projected vibrational frequencies (cm⁻¹)
eigval :       -0.00    -0.00    -0.00     0.00     0.00     0.00
eigval :       15.74    44.17    65.04    92.06   101.73   127.63
eigval :      165.97   201.11   208.34   240.08   256.85   308.17
eigval :      320.61   358.62   397.99   437.90   475.30   478.49
eigval :      521.09   541.09   556.11   563.04   641.05   681.05
eigval :      775.77   782.71   807.50   861.44   871.74   902.43
eigval :      918.15   927.13   941.51  1019.12  1033.46  1068.25
eigval :     1080.59  1090.84  1103.14  1111.66  1116.42  1141.19
eigval :     1143.64  1173.64  1186.49  1204.22  1222.27  1245.37
eigval :     1248.53  1255.24  1296.03  1309.54  1329.27  1331.99
eigval :     1340.65  1391.64  1432.53  1439.76  1457.57  1462.01
eigval :     1465.60  1472.28  1581.58  1585.29  2887.15  2944.88
eigval :     2950.36  2954.43  2959.72  2969.13  2995.27  3040.20
eigval :     3091.66  3095.80  3107.07  3117.31  3367.19  3453.85

   temp. (K)  partition function   enthalpy   heat capacity  entropy
                                   cal/mol     cal/K/mol   cal/K/mol   J/K/mol
 298.15  VIB  0.238E+06             7354.932     48.250     45.651
         ROT  0.203E+07              888.752      2.981     31.838
         INT  0.482E+12             8243.684     51.231     77.489
         TR   0.270E+28             1481.254      4.968     41.738
         TOT                        9724.9384    56.1989   119.2280   498.8498

       T/K    H(0)-H(T)+PV         H(T)/Eh          T*S/Eh         G(T)/Eh
   ------------------------------------------------------------------------
    298.15    0.154977E-01    0.238442E+00    0.566490E-01    0.181793E+00
   ------------------------------------------------------------------------

         :::::::::::::::::::::::::::::::::::::::::::::::::::::
         ::                  THERMODYNAMIC                  ::
         :::::::::::::::::::::::::::::::::::::::::::::::::::::
         :: total free energy         -44.624239145017 Eh   ::
         ::.................................................::
         :: total energy              -44.806032529794 Eh   ::
         :: zero point energy           0.222944757365 Eh   ::
         :: G(RRHO) w/o ZPVE           -0.041151372588 Eh   ::
         :: G(RRHO) contrib.            0.181793384777 Eh   ::
         :::::::::::::::::::::::::::::::::::::::::::::::::::::

           -------------------------------------------------
          | TOTAL ENERGY              -44.806032529794 Eh   |
          | TOTAL ENTHALPY            -44.567590096679 Eh   |
          | TOTAL FREE ENERGY         -44.624239145017 Eh   |
          | GRADIENT NORM               0.000834520750 Eh/α |
          | HOMO-LUMO GAP               4.135683615937 eV   |
           -------------------------------------------------

 * finished run on 2021/11/15 at 09:36:26.034
