   * xtb version 6.4.1 (afa7bdf) compiled by 'ehlert@majestix' on 2021-06-10
          program call               : xtb 35_1,3-dimethoxybenzene.xyz --gfn2 --chrg 0 --uhf 0 --alpb water --ohess -P 1
          number of atoms            :                    20
          number of electrons        :                    54
          charge                     :                     0

   ID    Z sym.   atoms
    1    6 C      1-6, 10, 16
    2    1 H      7, 8, 11-14, 17-20
    3    8 O      9, 15

        Solvent                        water
        Solvent mass                       1.8000E+01 g/mol
          :  Hamiltonian                  GFN2-xTB          :
 * total energy  :   -30.3500131 Eh     change       -0.1557048E-09 Eh
 * total energy  :   -30.3508083 Eh     change       -0.7952114E-03 Eh
 * total energy  :   -30.3508639 Eh     change       -0.5562509E-04 Eh
 * total energy  :   -30.3508699 Eh     change       -0.6033690E-05 Eh
 * total energy  :   -30.3508705 Eh     change       -0.5614324E-06 Eh
   *** GEOMETRY OPTIMIZATION CONVERGED AFTER 5 ITERATIONS ***

 final structure:
================
20
 xtb: 6.4.1 (afa7bdf)
C        -1.33979612428702    1.15994697140367   -0.00000000000005
C        -1.05771198840567   -0.19851952558896   -0.00000000000002
C         0.26677546544285   -0.64024331396485   -0.00000000000001
C         1.30561229221930    0.27523253481074   -0.00000000000003
C         1.02007129897661    1.64337544128878   -0.00000000000001
C        -0.28978652862535    2.06721479127179   -0.00000000000000
H         1.84118270948749    2.34122725780378    0.00000000000004
H        -0.50755311062842    3.12394027781340    0.00000000000005
O         2.62834533041988   -0.05497028893780    0.00000000000001
C         2.98675278092793   -1.42390828477258   -0.00000000000001
H         2.61277499932556   -1.92942730355967   -0.89398230012569
H         4.07428419474890   -1.43415054594158    0.00000000000003
H         2.61277499932551   -1.92942730355971    0.89398230012563
H        -2.35407226541892    1.52220064985002    0.00000000000000
O        -1.99385859803416   -1.19273287109584    0.00000000000004
C        -3.36275238230446   -0.83330692064115   -0.00000000000000
H        -3.62017568767706   -0.26027105936262   -0.89441749952796
H        -3.90544761086794   -1.77586280710002    0.00000000000008
H        -3.62017568767708   -0.26027105936251    0.89441749952788
H         0.43371491305205   -1.70456764035488    0.00000000000002

          :  Hamiltonian                  GFN2-xTB          :
         :: gradient norm              0.000215580752 Eh/a0 ::
         :: HOMO-LUMO gap              4.233096465650 eV    ::
         :: SCC energy               -30.763930318916 Eh    ::
         :: -> dispersion             -0.015071417557 Eh    ::
         :: -> Gsolv                  -0.005281804535 Eh    ::
         :: repulsion energy           0.413050927266 Eh    ::

    * Orbital Energies and Occupations

         #    Occupation            Energy/Eh            Energy/eV
      -------------------------------------------------------------
         1        2.0000           -0.7171304             -19.5141
       ...           ...                  ...                  ...
        15        2.0000           -0.5240634             -14.2605
        16        2.0000           -0.5123840             -13.9427
        17        2.0000           -0.4867903             -13.2462
        18        2.0000           -0.4849208             -13.1954
        19        2.0000           -0.4760077             -12.9528
        20        2.0000           -0.4636052             -12.6153
        21        2.0000           -0.4623499             -12.5812
        22        2.0000           -0.4589978             -12.4900
        23        2.0000           -0.4383279             -11.9275
        24        2.0000           -0.4340280             -11.8105
        25        2.0000           -0.4254309             -11.5766
        26        2.0000           -0.3889378             -10.5835
        27        2.0000           -0.3746833             -10.1957 (HOMO)
        28                         -0.2191199              -5.9626 (LUMO)
        29                         -0.2095963              -5.7034
        30                         -0.0861805              -2.3451
        31                          0.0173136               0.4711
        32                          0.0363228               0.9884
        33                          0.1132485               3.0816
        34                          0.1184325               3.2227
        35                          0.1294326               3.5220
        36                          0.1472999               4.0082
        37                          0.1584447               4.3115
        38                          0.1740679               4.7366
       ...                                ...                  ...
        50                          0.6794915              18.4899
      -------------------------------------------------------------
                  HL-Gap            0.1555634 Eh            4.2331 eV

     #   Z          covCN         q      C6AA      α(0)
     1   6 C        2.916    -0.085    30.128     9.001
     2   6 C        2.865     0.139    24.969     8.191
     3   6 C        2.918    -0.099    30.496     9.056
     4   6 C        2.864     0.141    24.925     8.183
     5   6 C        2.919    -0.075    29.876     8.963
     6   6 C        2.922    -0.038    28.948     8.823
     7   1 H        0.926     0.051     2.310     2.377
     8   1 H        0.926     0.051     2.312     2.378
     9   8 O        1.705    -0.301    19.006     5.886
    10   6 C        3.642     0.021    20.580     6.523
    11   1 H        0.924     0.054     2.271     2.357
    12   1 H        0.925     0.081     1.964     2.192
    13   1 H        0.924     0.054     2.271     2.357
    14   1 H        0.926     0.048     2.347     2.396
    15   8 O        1.705    -0.304    19.059     5.894
    16   6 C        3.641     0.021    20.576     6.522
    17   1 H        0.924     0.054     2.268     2.355
    18   1 H        0.925     0.080     1.975     2.198
    19   1 H        0.924     0.054     2.268     2.355
    20   1 H        0.926     0.053     2.281     2.362

Wiberg/Mayer (AO) data.
largest (>0.10) Wiberg bond orders for each atom

     #   Z sym  total        # sym  WBO       # sym  WBO       # sym  WBO
 ---------------------------------------------------------------------------
     1   6 C    3.983 --     6 C    1.414     2 C    1.385    14 H    0.966
     2   6 C    3.934 --     1 C    1.385     3 C    1.348    15 O    1.056
     3   6 C    3.978 --     4 C    1.404     2 C    1.348    20 H    0.963
     4   6 C    3.935 --     3 C    1.404     5 C    1.331     9 O    1.059
     5   6 C    3.984 --     6 C    1.476     4 C    1.331     7 H    0.968
     6   6 C    3.991 --     5 C    1.476     1 C    1.414     8 H    0.969
     7   1 H    0.997 --     5 C    0.968
     8   1 H    0.997 --     6 C    0.969
     9   8 O    2.210 --     4 C    1.059    10 C    0.971
    10   6 C    3.931 --    12 H    0.978    11 H    0.977    13 H    0.977
                             9 O    0.971
    11   1 H    0.997 --    10 C    0.977
    12   1 H    0.993 --    10 C    0.978
    13   1 H    0.997 --    10 C    0.977
    14   1 H    0.998 --     1 C    0.966
    15   8 O    2.206 --     2 C    1.056    16 C    0.971
    16   6 C    3.931 --    18 H    0.978    17 H    0.977    19 H    0.977
                            15 O    0.971
    17   1 H    0.997 --    16 C    0.977
    18   1 H    0.993 --    16 C    0.978
    19   1 H    0.997 --    16 C    0.977
    20   1 H    0.997 --     3 C    0.963
 ---------------------------------------------------------------------------

molecular dipole:
                 x           y           z       tot (Debye)
 q only:       -0.470      -0.247       0.000
   full:       -0.576      -0.286       0.000       1.635

 projected vibrational frequencies (cm⁻¹)
eigval :       -0.00    -0.00    -0.00    -0.00     0.00     0.00
eigval :       82.19    95.56   176.99   196.41   199.87   256.17
eigval :      261.23   271.98   404.48   426.41   445.48   509.73
eigval :      561.93   587.17   652.21   719.66   777.95   844.17
eigval :      859.37   915.37   915.50   978.98  1043.05  1061.71
eigval :     1112.43  1114.64  1115.23  1146.98  1149.11  1150.15
eigval :     1192.04  1256.22  1265.05  1344.27  1386.91  1389.15
eigval :     1435.91  1457.39  1458.34  1461.56  1472.17  1473.80
eigval :     1582.66  1598.42  2945.36  2945.55  2957.55  2958.22
eigval :     3034.11  3034.71  3090.01  3112.30  3118.66  3121.56

   temp. (K)  partition function   enthalpy   heat capacity  entropy
                                   cal/mol     cal/K/mol   cal/K/mol   J/K/mol
 298.15  VIB   240.                 4369.884     30.935     25.410
         ROT  0.711E+06              888.752      2.981     29.758
         INT  0.171E+09             5258.636     33.916     55.168
         TR   0.157E+28             1481.254      4.968     40.663
         TOT                        6739.8902    38.8838    95.8316   400.9594

       T/K    H(0)-H(T)+PV         H(T)/Eh          T*S/Eh         G(T)/Eh
   ------------------------------------------------------------------------
    298.15    0.107407E-01    0.170495E+00    0.455327E-01    0.124962E+00
   ------------------------------------------------------------------------

         :::::::::::::::::::::::::::::::::::::::::::::::::::::
         ::                  THERMODYNAMIC                  ::
         :::::::::::::::::::::::::::::::::::::::::::::::::::::
         :: total free energy         -30.225908221246 Eh   ::
         ::.................................................::
         :: total energy              -30.350870502434 Eh   ::
         :: zero point energy           0.159754263101 Eh   ::
         :: G(RRHO) w/o ZPVE           -0.034791981913 Eh   ::
         :: G(RRHO) contrib.            0.124962281188 Eh   ::
         :::::::::::::::::::::::::::::::::::::::::::::::::::::

           -------------------------------------------------
          | TOTAL ENERGY              -30.350870502434 Eh   |
          | TOTAL ENTHALPY            -30.180375540690 Eh   |
          | TOTAL FREE ENERGY         -30.225908221246 Eh   |
          | GRADIENT NORM               0.000215523720 Eh/α |
          | HOMO-LUMO GAP               4.233095119206 eV   |
           -------------------------------------------------

 * finished run on 2021/11/15 at 09:36:23.896
