   * xtb version 6.4.1 (afa7bdf) compiled by 'ehlert@majestix' on 2021-06-10
          program call               : xtb 13_2,4,6-trichlorophenol.xyz --gfn2 --chrg 0 --uhf 0 --alpb water --ohess -P 1
          number of atoms            :                    13
          number of electrons        :                    54
          charge                     :                     0

   ID    Z sym.   atoms
    1    6 C      1-6
    2    1 H      7, 8, 10
    3    8 O      9
    4   17 Cl     11-13

        Solvent                        water
        Solvent mass                       1.8000E+01 g/mol
          :  Hamiltonian                  GFN2-xTB          :
 * total energy  :   -32.1084438 Eh     change       -0.3013042E-08 Eh
 * total energy  :   -32.1089925 Eh     change       -0.5486634E-03 Eh
 * total energy  :   -32.1091327 Eh     change       -0.1401692E-03 Eh
 * total energy  :   -32.1091510 Eh     change       -0.1837646E-04 Eh
 * total energy  :   -32.1091549 Eh     change       -0.3856124E-05 Eh
   *** GEOMETRY OPTIMIZATION CONVERGED AFTER 5 ITERATIONS ***

 final structure:
================
13
 xtb: 6.4.1 (afa7bdf)
C        -1.61112519035904   -0.04822673042883    0.00000000357023
C        -0.89188001531330   -1.23188515377560    0.00000000071334
C         0.48979996268017   -1.17074172852438    0.00000000124347
C         1.18281316316574    0.04384307562504    0.00000000410367
C         0.41251185102889    1.21289447480670    0.00000000107037
C        -0.96987309569573    1.17986038563822   -0.00000000006296
H        -1.39717431562154   -2.18318349750692   -0.00000000159110
H        -1.53099780964860    2.09868866276357   -0.00000000229378
O         2.51695503140829    0.13574496268506    0.00000000018764
H         2.92431448023109   -0.74978167600390   -0.00000000103767
Cl        1.40695013061866   -2.64742907281630   -0.00000000273428
Cl       -3.33963214426603   -0.10601356202191   -0.00000000109464
Cl        1.23940695177141    2.72905085955926   -0.00000000207429

          :  Hamiltonian                  GFN2-xTB          :
         :: gradient norm              0.000632442563 Eh/a0 ::
         :: HOMO-LUMO gap              3.698124139553 eV    ::
         :: SCC energy               -32.393798832248 Eh    ::
         :: -> dispersion             -0.014971644172 Eh    ::
         :: -> Gsolv                  -0.010375798468 Eh    ::
         :: repulsion energy           0.284602356837 Eh    ::

    * Orbital Energies and Occupations

         #    Occupation            Energy/Eh            Energy/eV
      -------------------------------------------------------------
         1        2.0000           -1.0756645             -29.2703
       ...           ...                  ...                  ...
        15        2.0000           -0.5167511             -14.0615
        16        2.0000           -0.5148688             -14.0103
        17        2.0000           -0.5104263             -13.8894
        18        2.0000           -0.4883048             -13.2874
        19        2.0000           -0.4844219             -13.1818
        20        2.0000           -0.4699000             -12.7866
        21        2.0000           -0.4675966             -12.7240
        22        2.0000           -0.4446463             -12.0994
        23        2.0000           -0.4346884             -11.8285
        24        2.0000           -0.4334258             -11.7941
        25        2.0000           -0.4283860             -11.6570
        26        2.0000           -0.4147944             -11.2871
        27        2.0000           -0.3961466             -10.7797 (HOMO)
        28                         -0.2602430              -7.0816 (LUMO)
        29                         -0.2491043              -6.7785
        30                         -0.1813477              -4.9347
        31                         -0.1432519              -3.8981
        32                         -0.1369634              -3.7270
        33                         -0.1341539              -3.6505
        34                         -0.0090792              -0.2471
        35                         -0.0043528              -0.1184
        36                         -0.0023834              -0.0649
        37                          0.0011760               0.0320
        38                          0.0066191               0.1801
       ...                                ...                  ...
        58                          0.6036376              16.4258
      -------------------------------------------------------------
                  HL-Gap            0.1359035 Eh            3.6981 eV

     #   Z          covCN         q      C6AA      α(0)
     1   6 C        2.893     0.098    25.834     8.333
     2   6 C        2.987    -0.058    29.428     8.899
     3   6 C        2.892     0.063    26.581     8.453
     4   6 C        2.914     0.143    24.898     8.182
     5   6 C        2.893     0.081    26.200     8.392
     6   6 C        2.987    -0.059    29.460     8.903
     7   1 H        0.926     0.106     1.733     2.059
     8   1 H        0.926     0.112     1.680     2.027
     9   8 O        1.659    -0.389    20.645     6.134
    10   1 H        0.804     0.390     0.504     1.115
    11  17 Cl       0.964    -0.163   104.271    15.622
    12  17 Cl       0.968    -0.170   104.500    15.639
    13  17 Cl       0.971    -0.151   103.894    15.594

Wiberg/Mayer (AO) data.
largest (>0.10) Wiberg bond orders for each atom

     #   Z sym  total        # sym  WBO       # sym  WBO       # sym  WBO
 ---------------------------------------------------------------------------
     1   6 C    3.919 --     6 C    1.394     2 C    1.394    12 Cl   0.974
     2   6 C    3.981 --     3 C    1.415     1 C    1.394     7 H    0.958
     3   6 C    3.912 --     2 C    1.415     4 C    1.320    11 Cl   0.968
     4   6 C    3.959 --     3 C    1.320     5 C    1.314     9 O    1.136
     5   6 C    3.920 --     6 C    1.416     4 C    1.314    13 Cl   0.984
     6   6 C    3.980 --     5 C    1.416     1 C    1.394     8 H    0.957
     7   1 H    0.988 --     2 C    0.958
     8   1 H    0.987 --     6 C    0.957
     9   8 O    2.145 --     4 C    1.136    10 H    0.818
    10   1 H    0.848 --     9 O    0.818
    11  17 Cl   1.114 --     3 C    0.968
    12  17 Cl   1.097 --     1 C    0.974
    13  17 Cl   1.119 --     5 C    0.984
 ---------------------------------------------------------------------------

molecular dipole:
                 x           y           z       tot (Debye)
 q only:        0.333      -0.524      -0.000
   full:        0.241      -0.833       0.000       2.204

 projected vibrational frequencies (cm⁻¹)
eigval :       -0.00    -0.00    -0.00     0.00     0.00     0.00
eigval :       96.56   132.62   170.87   176.44   197.07   255.62
eigval :      344.19   350.33   354.90   390.05   413.09   490.15
eigval :      535.07   537.61   647.31   714.71   764.14   836.64
eigval :      840.73   870.36  1041.58  1091.47  1119.53  1189.73
eigval :     1274.12  1315.67  1379.26  1434.29  1537.02  1560.38
eigval :     3123.14  3130.00  3346.89

   temp. (K)  partition function   enthalpy   heat capacity  entropy
                                   cal/mol     cal/K/mol   cal/K/mol   J/K/mol
 298.15  VIB   158.                 4183.314     28.390     24.043
         ROT  0.178E+07              888.752      2.981     31.586
         INT  0.282E+09             5072.067     31.371     55.629
         TR   0.268E+28             1481.254      4.968     41.727
         TOT                        6553.3205    36.3393    97.3557   407.3363

       T/K    H(0)-H(T)+PV         H(T)/Eh          T*S/Eh         G(T)/Eh
   ------------------------------------------------------------------------
    298.15    0.104434E-01    0.825737E-01    0.462568E-01    0.363169E-01
   ------------------------------------------------------------------------

         :::::::::::::::::::::::::::::::::::::::::::::::::::::
         ::                  THERMODYNAMIC                  ::
         :::::::::::::::::::::::::::::::::::::::::::::::::::::
         :: total free energy         -32.072838002680 Eh   ::
         ::.................................................::
         :: total energy              -32.109154907428 Eh   ::
         :: zero point energy           0.072130366781 Eh   ::
         :: G(RRHO) w/o ZPVE           -0.035813462033 Eh   ::
         :: G(RRHO) contrib.            0.036316904748 Eh   ::
         :::::::::::::::::::::::::::::::::::::::::::::::::::::

           -------------------------------------------------
          | TOTAL ENERGY              -32.109154907428 Eh   |
          | TOTAL ENTHALPY            -32.026581159611 Eh   |
          | TOTAL FREE ENERGY         -32.072838002680 Eh   |
          | GRADIENT NORM               0.000632410730 Eh/α |
          | HOMO-LUMO GAP               3.698123127760 eV   |
           -------------------------------------------------

 * finished run on 2021/11/15 at 09:36:13.746
