   * xtb version 6.4.1 (afa7bdf) compiled by 'ehlert@majestix' on 2021-06-10
          program call               : xtb 17_2-phenylphenol.xyz --gfn2 --chrg 0 --uhf 0 --alpb water --ohess -P 1
          number of atoms            :                    23
          number of electrons        :                    64
          charge                     :                     0

   ID    Z sym.   atoms
    1    6 C      1-6, 13-16, 18, 20
    2    1 H      7, 9-12, 17, 19, 21-23
    3    8 O      8

        Solvent                        water
        Solvent mass                       1.8000E+01 g/mol
          :  Hamiltonian                  GFN2-xTB          :
 * total energy  :   -34.8446713 Eh     change       -0.1600185E-08 Eh
 * total energy  :   -34.8460123 Eh     change       -0.1340996E-02 Eh
 * total energy  :   -34.8461403 Eh     change       -0.1280315E-03 Eh
 * total energy  :   -34.8461644 Eh     change       -0.2410095E-04 Eh
 * total energy  :   -34.8461859 Eh     change       -0.2148547E-04 Eh
 * total energy  :   -34.8461968 Eh     change       -0.1083136E-04 Eh
 * total energy  :   -34.8462099 Eh     change       -0.1311821E-04 Eh
 * total energy  :   -34.8462170 Eh     change       -0.7105068E-05 Eh
 * total energy  :   -34.8462199 Eh     change       -0.2951726E-05 Eh
   *** GEOMETRY OPTIMIZATION CONVERGED AFTER 9 ITERATIONS ***

 final structure:
================
23
 xtb: 6.4.1 (afa7bdf)
C        -2.68456561751816   -1.47864986102580   -0.42610173147627
C        -3.44548860899649   -0.36056556776153   -0.12559283556855
C        -2.82589157984415    0.82251169927736    0.22551013510736
C        -1.43801439766809    0.90732440409124    0.26977641208100
C        -0.65956870657610   -0.21261230388968   -0.04786621935974
C        -1.30591041972875   -1.39889195110403   -0.38235313614819
H        -0.70586505804941   -2.26237026857584   -0.62945816439629
O        -0.90030372082456    2.09885539687779    0.65394836519273
H         0.06176958700880    2.02146214901330    0.74912731211038
H        -4.52289614677108   -0.40943496958572   -0.15989402186724
H        -3.39692000783895    1.70297559039238    0.47550029319581
H        -3.16393391019371   -2.40666967584611   -0.69642058495615
C         0.81517874907297   -0.16028670289440   -0.03790812149865
C         1.54639469911822   -1.11892181750892    0.65978998162302
C         1.50071227308339    0.82707066927712   -0.74420988026211
C         2.92846782311494   -1.08399134208433    0.65970505697257
H         1.02188649663331   -1.88562265086443    1.21070874735146
C         2.88441470460743    0.85636045589524   -0.74551502427023
H         0.94727377154279    1.55448461416652   -1.32154336402680
C         3.60136089397205   -0.09534693894541   -0.04039272587406
H         3.48377828474722   -1.83040221457742    1.20782582338870
H         3.40290995765757    1.62332448585006   -1.30104824974501
H         4.68044093345093   -0.06986220017724   -0.03925006757389

          :  Hamiltonian                  GFN2-xTB          :
         :: gradient norm              0.000397292299 Eh/a0 ::
         :: HOMO-LUMO gap              3.708515296864 eV    ::
         :: SCC energy               -35.463735463782 Eh    ::
         :: -> dispersion             -0.022583611993 Eh    ::
         :: -> Gsolv                  -0.006633863620 Eh    ::
         :: repulsion energy           0.617474357490 Eh    ::

    * Orbital Energies and Occupations

         #    Occupation            Energy/Eh            Energy/eV
      -------------------------------------------------------------
         1        2.0000           -0.7077451             -19.2587
       ...           ...                  ...                  ...
        20        2.0000           -0.4817507             -13.1091
        21        2.0000           -0.4781826             -13.0120
        22        2.0000           -0.4750709             -12.9273
        23        2.0000           -0.4724790             -12.8568
        24        2.0000           -0.4579739             -12.4621
        25        2.0000           -0.4423387             -12.0366
        26        2.0000           -0.4312142             -11.7339
        27        2.0000           -0.4255894             -11.5809
        28        2.0000           -0.4147023             -11.2846
        29        2.0000           -0.4110845             -11.1862
        30        2.0000           -0.4068572             -11.0711
        31        2.0000           -0.3938351             -10.7168
        32        2.0000           -0.3775761             -10.2744 (HOMO)
        33                         -0.2412906              -6.5659 (LUMO)
        34                         -0.2256047              -6.1390
        35                         -0.2150139              -5.8508
        36                         -0.2024659              -5.5094
        37                         -0.1013594              -2.7581
        38                         -0.0783269              -2.1314
        39                          0.0738858               2.0105
        40                          0.0947192               2.5774
        41                          0.1232749               3.3545
        42                          0.1469749               3.9994
        43                          0.1514212               4.1204
       ...                                ...                  ...
        62                          0.6872166              18.7001
      -------------------------------------------------------------
                  HL-Gap            0.1362854 Eh            3.7085 eV

     #   Z          covCN         q      C6AA      α(0)
     1   6 C        2.917    -0.048    29.204     8.862
     2   6 C        2.920    -0.038    28.943     8.822
     3   6 C        2.919    -0.063    29.557     8.915
     4   6 C        2.849     0.141    24.930     8.183
     5   6 C        2.974    -0.030    28.735     8.793
     6   6 C        2.927    -0.040    28.995     8.831
     7   1 H        0.926     0.040     2.454     2.450
     8   8 O        1.659    -0.446    21.764     6.298
     9   1 H        0.804     0.349     0.589     1.206
    10   1 H        0.926     0.042     2.425     2.435
    11   1 H        0.926     0.047     2.354     2.399
    12   1 H        0.926     0.039     2.464     2.455
    13   6 C        2.976     0.008    27.829     8.653
    14   6 C        2.924    -0.038    28.951     8.824
    15   6 C        2.924    -0.045    29.116     8.849
    16   6 C        2.918    -0.034    28.843     8.807
    17   1 H        0.926     0.037     2.495     2.470
    18   6 C        2.918    -0.035    28.880     8.813
    19   1 H        0.926     0.039     2.462     2.454
    20   6 C        2.920    -0.036    28.901     8.816
    21   1 H        0.926     0.037     2.485     2.465
    22   1 H        0.926     0.038     2.476     2.461
    23   1 H        0.926     0.037     2.493     2.469

Wiberg/Mayer (AO) data.
largest (>0.10) Wiberg bond orders for each atom

     #   Z sym  total        # sym  WBO       # sym  WBO       # sym  WBO
 ---------------------------------------------------------------------------
     1   6 C    3.991 --     6 C    1.448     2 C    1.424    12 H    0.970
     2   6 C    3.988 --     3 C    1.454     1 C    1.424    10 H    0.970
                             5 C    0.101
     3   6 C    3.988 --     2 C    1.454     4 C    1.372    11 H    0.968
                             6 C    0.105
     4   6 C    3.937 --     3 C    1.372     5 C    1.331     8 O    1.072
     5   6 C    3.986 --     6 C    1.398     4 C    1.331    13 C    1.036
                             2 C    0.101
     6   6 C    3.991 --     1 C    1.448     5 C    1.398     7 H    0.969
                             3 C    0.105
     7   1 H    0.998 --     6 C    0.969
     8   8 O    2.086 --     4 C    1.072     9 H    0.846
     9   1 H    0.878 --     8 O    0.846
    10   1 H    0.998 --     2 C    0.970
    11   1 H    0.997 --     3 C    0.968
    12   1 H    0.998 --     1 C    0.970
    13   6 C    3.989 --    15 C    1.391    14 C    1.390     5 C    1.036
                            20 C    0.106
    14   6 C    3.991 --    16 C    1.453    13 C    1.390    17 H    0.969
                            18 C    0.110
    15   6 C    3.991 --    18 C    1.444    13 C    1.391    19 H    0.968
                            16 C    0.108
    16   6 C    3.992 --    14 C    1.453    20 C    1.433    21 H    0.970
                            15 C    0.108
    17   1 H    0.999 --    14 C    0.969
    18   6 C    3.991 --    15 C    1.444    20 C    1.439    22 H    0.970
                            14 C    0.110
    19   1 H    0.998 --    15 C    0.968
    20   6 C    3.988 --    18 C    1.439    16 C    1.433    23 H    0.971
                            13 C    0.106
    21   1 H    0.998 --    16 C    0.970
    22   1 H    0.998 --    18 C    0.970
    23   1 H    0.998 --    20 C    0.971
 ---------------------------------------------------------------------------

molecular dipole:
                 x           y           z       tot (Debye)
 q only:        0.537      -0.244       0.000
   full:        0.710      -0.320      -0.016       1.981

 projected vibrational frequencies (cm⁻¹)
eigval :       -0.00    -0.00    -0.00    -0.00     0.00     0.00
eigval :       64.63    80.04    97.71   199.55   252.30   281.98
eigval :      317.30   370.83   410.19   432.41   466.77   494.74
eigval :      529.77   541.28   585.37   590.48   670.29   691.62
eigval :      726.38   758.80   787.63   820.95   877.51   883.01
eigval :      905.69   914.36   923.72   932.22   935.23   960.66
eigval :     1031.68  1081.89  1087.30  1105.90  1119.97  1144.93
eigval :     1174.97  1180.26  1197.41  1231.44  1258.43  1281.14
eigval :     1292.45  1314.21  1326.01  1420.24  1440.63  1459.25
eigval :     1491.85  1573.94  1581.10  1595.86  1601.06  3067.92
eigval :     3073.84  3077.07  3079.81  3083.65  3085.21  3094.10
eigval :     3096.04  3104.19  3431.20

   temp. (K)  partition function   enthalpy   heat capacity  entropy
                                   cal/mol     cal/K/mol   cal/K/mol   J/K/mol
 298.15  VIB   439.                 4797.880     36.483     27.770
         ROT  0.127E+07              888.752      2.981     30.913
         INT  0.559E+09             5686.632     39.464     58.683
         TR   0.215E+28             1481.254      4.968     41.285
         TOT                        7167.8864    44.4320    99.9675   418.2641

       T/K    H(0)-H(T)+PV         H(T)/Eh          T*S/Eh         G(T)/Eh
   ------------------------------------------------------------------------
    298.15    0.114228E-01    0.190688E+00    0.474978E-01    0.143190E+00
   ------------------------------------------------------------------------

         :::::::::::::::::::::::::::::::::::::::::::::::::::::
         ::                  THERMODYNAMIC                  ::
         :::::::::::::::::::::::::::::::::::::::::::::::::::::
         :: total free energy         -34.703029698743 Eh   ::
         ::.................................................::
         :: total energy              -34.846219944827 Eh   ::
         :: zero point energy           0.179265285429 Eh   ::
         :: G(RRHO) w/o ZPVE           -0.036075039345 Eh   ::
         :: G(RRHO) contrib.            0.143190246084 Eh   ::
         :::::::::::::::::::::::::::::::::::::::::::::::::::::

           -------------------------------------------------
          | TOTAL ENERGY              -34.846219944827 Eh   |
          | TOTAL ENTHALPY            -34.655531905338 Eh   |
          | TOTAL FREE ENERGY         -34.703029698743 Eh   |
          | GRADIENT NORM               0.000397247518 Eh/α |
          | HOMO-LUMO GAP               3.708515778194 eV   |
           -------------------------------------------------

 * finished run on 2021/11/15 at 09:36:17.454
