   * xtb version 6.4.1 (afa7bdf) compiled by 'ehlert@majestix' on 2021-06-10
          program call               : xtb 41_3-nitro-L-tyrosine.xyz --gfn2 --chrg 0 --uhf 0 --alpb water --ohess -P 1
          number of atoms            :                    26
          number of electrons        :                    86
          charge                     :                     0

   ID    Z sym.   atoms
    1    8 O      1-3, 25, 26
    2    7 N      4, 24
    3    6 C      5-13
    4    1 H      14-23

        Solvent                        water
        Solvent mass                       1.8000E+01 g/mol
          :  Hamiltonian                  GFN2-xTB          :
 * total energy  :   -50.4870260 Eh     change       -0.5715250E-09 Eh
 * total energy  :   -50.4899820 Eh     change       -0.2956073E-02 Eh
 * total energy  :   -50.4909646 Eh     change       -0.9825882E-03 Eh
 * total energy  :   -50.4910935 Eh     change       -0.1288327E-03 Eh
 * total energy  :   -50.4912779 Eh     change       -0.1844509E-03 Eh
 * total energy  :   -50.4913298 Eh     change       -0.5187507E-04 Eh
 * total energy  :   -50.4913716 Eh     change       -0.4181620E-04 Eh
 * total energy  :   -50.4914014 Eh     change       -0.2977914E-04 Eh
 * total energy  :   -50.4914322 Eh     change       -0.3087205E-04 Eh
 * total energy  :   -50.4914581 Eh     change       -0.2584804E-04 Eh
 * total energy  :   -50.4914717 Eh     change       -0.1362912E-04 Eh
 * total energy  :   -50.4914796 Eh     change       -0.7910129E-05 Eh
 * total energy  :   -50.4914839 Eh     change       -0.4263813E-05 Eh
   *** GEOMETRY OPTIMIZATION CONVERGED AFTER 13 ITERATIONS ***

 final structure:
================
26
 xtb: 6.4.1 (afa7bdf)
O        -3.92894003581847    1.64976963082009   -0.71055250445366
O         3.78438478752544   -1.37223212831335    0.20061734441903
O        -4.77555337746562    0.01496285570525    0.56939057613855
N        -2.64071206720998   -1.07591726479571    1.22580360601805
C        -1.64684353011744   -0.22282284926732   -0.90545433891341
C        -2.40826952191959    0.10854204758396    0.37582347388394
C        -0.19512852650322   -0.50192519621868   -0.63491520904795
C         0.67540686603477    0.52841565800734   -0.36458610858518
C         0.30484804678005   -1.81169555705122   -0.62348561808571
C         2.02737253245884    0.28632740655230   -0.07714444049167
C         1.62465422073111   -2.07132987292134   -0.34323616734858
C        -3.85780374591201    0.66697342235299    0.02627725952690
C         2.52810112641386   -1.03743040688140   -0.06127027116915
H        -1.74955380010160    0.64283621823315   -1.56270006589979
H        -2.11906358143866   -1.07184685058724   -1.40022651141197
H        -1.89055582318364    0.89656255008601    0.92366157873129
H         0.33929773750020    1.55441697459923   -0.37488366521868
H        -0.35028351604675   -2.63675001693897   -0.85625381650973
H         2.01116616806418   -3.07719948477145   -0.33629210221677
H        -3.71306861745659   -1.05375445989576    1.27839217499161
H        -2.23923509758192   -1.00474310178825    2.16192692406371
H         4.33661603601045   -0.57615447466004    0.37211448457161
H        -2.33400403425160   -1.94194872106935    0.77722952797306
N         2.85152833305281    1.39228472924352    0.18366979310815
O         2.37161072760536    2.51714576715101    0.17425232482053
O         4.05018469282990    1.19937912482547    0.41954475110571

          :  Hamiltonian                  GFN2-xTB          :
         :: gradient norm              0.000806752648 Eh/a0 ::
         :: HOMO-LUMO gap              1.391882100055 eV    ::
         :: SCC energy               -51.017251860463 Eh    ::
         :: -> dispersion             -0.024010340448 Eh    ::
         :: -> Gsolv                  -0.081897962769 Eh    ::
         :: repulsion energy           0.525670042520 Eh    ::

    * Orbital Energies and Occupations

         #    Occupation            Energy/Eh            Energy/eV
      -------------------------------------------------------------
         1        2.0000           -0.7821467             -21.2833
       ...           ...                  ...                  ...
        31        2.0000           -0.4935739             -13.4308
        32        2.0000           -0.4861991             -13.2302
        33        2.0000           -0.4785565             -13.0222
        34        2.0000           -0.4741314             -12.9018
        35        2.0000           -0.4643356             -12.6352
        36        2.0000           -0.4629075             -12.5964
        37        2.0000           -0.4563523             -12.4180
        38        2.0000           -0.4437342             -12.0746
        39        2.0000           -0.4424898             -12.0408
        40        2.0000           -0.4213495             -11.4655
        41        2.0000           -0.4112168             -11.1898
        42        2.0000           -0.4101693             -11.1613
        43        2.0000           -0.3844609             -10.4617 (HOMO)
        44                         -0.3333101              -9.0698 (LUMO)
        45                         -0.2467038              -6.7132
        46                         -0.2369542              -6.4479
        47                         -0.1910389              -5.1984
        48                         -0.1198764              -3.2620
        49                         -0.0351334              -0.9560
        50                         -0.0046245              -0.1258
        51                          0.0402861               1.0962
        52                          0.0560093               1.5241
        53                          0.0729008               1.9837
        54                          0.0883922               2.4053
       ...                                ...                  ...
        74                          0.6516612              17.7326
      -------------------------------------------------------------
                  HL-Gap            0.0511508 Eh            1.3919 eV

     #   Z          covCN         q      C6AA      α(0)
     1   8 O        0.856    -0.603    26.196     6.862
     2   8 O        1.659    -0.387    20.600     6.127
     3   8 O        0.857    -0.600    26.131     6.854
     4   7 N        3.483    -0.189    25.086     7.439
     5   6 C        3.809    -0.082    22.049     6.684
     6   6 C        3.776    -0.014    20.860     6.507
     7   6 C        2.965     0.020    27.565     8.612
     8   6 C        2.925    -0.032    28.797     8.800
     9   6 C        2.922    -0.028    28.689     8.784
    10   6 C        2.908    -0.027    28.670     8.780
    11   6 C        2.916    -0.057    29.412     8.893
    12   6 C        2.681     0.367    20.776     7.459
    13   6 C        2.838     0.178    24.173     8.057
    14   1 H        0.924     0.080     1.975     2.198
    15   1 H        0.924     0.082     1.964     2.191
    16   1 H        0.924     0.084     1.939     2.178
    17   1 H        0.926     0.081     1.964     2.191
    18   1 H        0.926     0.098     1.800     2.098
    19   1 H        0.926     0.100     1.787     2.090
    20   1 H        0.854     0.314     0.674     1.286
    21   1 H        0.860     0.305     0.700     1.310
    22   1 H        0.802     0.389     0.506     1.118
    23   1 H        0.859     0.295     0.727     1.336
    24   7 N        2.762     0.555    13.429     5.443
    25   8 O        0.930    -0.454    22.751     6.397
    26   8 O        0.929    -0.475    23.201     6.460

Wiberg/Mayer (AO) data.
largest (>0.10) Wiberg bond orders for each atom

     #   Z sym  total        # sym  WBO       # sym  WBO       # sym  WBO
 ---------------------------------------------------------------------------
     1   8 O    1.866 --    12 C    1.562     3 O    0.216
     2   8 O    2.202 --    13 C    1.182    22 H    0.787
     3   8 O    1.891 --    12 C    1.470     1 O    0.216
     4   7 N    3.627 --     6 C    0.972    21 H    0.896    23 H    0.895
                            20 H    0.793
     5   6 C    3.986 --     7 C    1.011     6 C    0.983    15 H    0.966
                            14 H    0.956
     6   6 C    3.935 --     5 C    0.983     4 N    0.972    16 H    0.956
                            12 C    0.868
     7   6 C    3.988 --     8 C    1.481     9 C    1.332     5 C    1.011
     8   6 C    3.983 --     7 C    1.481    10 C    1.315    17 H    0.958
                            11 C    0.109
     9   6 C    3.981 --    11 C    1.503     7 C    1.332    18 H    0.960
    10   6 C    3.937 --     8 C    1.315    13 C    1.260    24 N    1.055
    11   6 C    3.980 --     9 C    1.503    13 C    1.317    19 H    0.960
                             8 C    0.109
    12   6 C    3.932 --     1 O    1.562     3 O    1.470     6 C    0.868
    13   6 C    3.944 --    11 C    1.317    10 C    1.260     2 O    1.182
    14   1 H    0.993 --     5 C    0.956
    15   1 H    0.993 --     5 C    0.966
    16   1 H    0.993 --     6 C    0.956
    17   1 H    0.993 --     8 C    0.958
    18   1 H    0.990 --     9 C    0.960
    19   1 H    0.989 --    11 C    0.960
    20   1 H    0.901 --     4 N    0.793
    21   1 H    0.907 --     4 N    0.896
    22   1 H    0.849 --     2 O    0.787
    23   1 H    0.913 --     4 N    0.895
    24   7 N    3.901 --    25 O    1.417    26 O    1.361    10 C    1.055
    25   8 O    1.888 --    24 N    1.417    26 O    0.291
    26   8 O    1.871 --    24 N    1.361    25 O    0.291
 ---------------------------------------------------------------------------

molecular dipole:
                 x           y           z       tot (Debye)
 q only:        1.410      -5.357       1.567
   full:        1.683      -5.081       1.641      14.230

 projected vibrational frequencies (cm⁻¹)
eigval :       -0.00    -0.00     0.00     0.00     0.00     0.00
eigval :       31.32    37.79    52.45    71.74    74.57   127.99
eigval :      158.87   181.60   229.17   318.03   325.39   344.03
eigval :      363.69   386.97   399.17   411.47   421.08   482.96
eigval :      522.15   550.83   569.19   636.44   640.75   662.58
eigval :      675.17   722.00   741.29   778.19   819.26   830.23
eigval :      854.09   886.95   893.69   922.27   927.76   961.49
eigval :     1015.25  1049.29  1081.49  1117.73  1127.92  1147.90
eigval :     1154.23  1185.91  1211.18  1240.94  1245.79  1259.84
eigval :     1286.34  1315.18  1325.08  1330.81  1366.26  1392.42
eigval :     1395.03  1404.34  1463.60  1467.22  1525.21  1536.21
eigval :     1600.90  1738.12  2539.17  2996.19  3003.52  3008.55
eigval :     3098.26  3101.10  3122.40  3156.93  3306.93  3322.15

   temp. (K)  partition function   enthalpy   heat capacity  entropy
                                   cal/mol     cal/K/mol   cal/K/mol   J/K/mol
 298.15  VIB  0.214E+06             7355.069     48.713     45.495
         ROT  0.351E+07              888.752      2.981     32.929
         INT  0.749E+12             8243.821     51.694     78.424
         TR   0.329E+28             1481.254      4.968     42.132
         TOT                        9725.0751    56.6619   120.5554   504.4039

       T/K    H(0)-H(T)+PV         H(T)/Eh          T*S/Eh         G(T)/Eh
   ------------------------------------------------------------------------
    298.15    0.154979E-01    0.203793E+00    0.572798E-01    0.146513E+00
   ------------------------------------------------------------------------

         :::::::::::::::::::::::::::::::::::::::::::::::::::::
         ::                  THERMODYNAMIC                  ::
         :::::::::::::::::::::::::::::::::::::::::::::::::::::
         :: total free energy         -50.344970615786 Eh   ::
         ::.................................................::
         :: total energy              -50.491483896924 Eh   ::
         :: zero point energy           0.188295164050 Eh   ::
         :: G(RRHO) w/o ZPVE           -0.041781882912 Eh   ::
         :: G(RRHO) contrib.            0.146513281138 Eh   ::
         :::::::::::::::::::::::::::::::::::::::::::::::::::::

           -------------------------------------------------
          | TOTAL ENERGY              -50.491483896924 Eh   |
          | TOTAL ENTHALPY            -50.287690839153 Eh   |
          | TOTAL FREE ENERGY         -50.344970615786 Eh   |
          | GRADIENT NORM               0.000806327634 Eh/α |
          | HOMO-LUMO GAP               1.391882810560 eV   |
           -------------------------------------------------

 * finished run on 2021/11/15 at 09:36:27.366
