   * xtb version 6.4.1 (afa7bdf) compiled by 'ehlert@majestix' on 2021-06-10
          program call               : xtb 09_4-methoxyphenol.xyz --gfn2 --chrg 0 --uhf 0 --alpb water --ohess -P 1
          number of atoms            :                    17
          number of electrons        :                    48
          charge                     :                     0

   ID    Z sym.   atoms
    1    6 C      1-6, 14
    2    1 H      7, 8, 10-12, 15-17
    3    8 O      9, 13

        Solvent                        water
        Solvent mass                       1.8000E+01 g/mol
          :  Hamiltonian                  GFN2-xTB          :
 * total energy  :   -27.1936185 Eh     change       -0.1943121E-09 Eh
 * total energy  :   -27.1943107 Eh     change       -0.6921355E-03 Eh
 * total energy  :   -27.1943806 Eh     change       -0.6990372E-04 Eh
 * total energy  :   -27.1943912 Eh     change       -0.1060547E-04 Eh
 * total energy  :   -27.1943931 Eh     change       -0.1975965E-05 Eh
   *** GEOMETRY OPTIMIZATION CONVERGED AFTER 5 ITERATIONS ***

 final structure:
================
17
 xtb: 6.4.1 (afa7bdf)
C         0.92034744070310   -0.27214210669410    0.00004764653302
C         0.40238998420057    1.01749842265284    0.00010453275012
C        -0.96707928959558    1.21438441729374    0.00012618142296
C        -1.84020251114362    0.13423803799553    0.00009462603572
C        -1.32136185466222   -1.15673284399139    0.00004994160376
C         0.04375491373495   -1.35562976989070    0.00002536329411
H        -1.98436329939451   -2.00937750120931    0.00003245899535
H         0.45865180180578   -2.35091342944179   -0.00001373687079
O        -3.18006804089515    0.38569284579955    0.00009736177281
H        -3.67880311368943   -0.44485891079516    0.00020084160355
H        -1.37678044139982    2.21198849785356    0.00016633245018
H         1.04990653636271    1.87897503046076    0.00014060530210
O         2.25430041644796   -0.58427513531085    0.00001776408714
C         3.19329560188640    0.47258579414203   -0.00015117991773
H         4.16755198915412   -0.01105559293237   -0.00031001247857
H         3.09102429938229    1.09312735346958   -0.89455645405475
H         3.09132956710245    1.09314889059808    0.89427472747102

          :  Hamiltonian                  GFN2-xTB          :
         :: gradient norm              0.000609990945 Eh/a0 ::
         :: HOMO-LUMO gap              3.843606552527 eV    ::
         :: SCC energy               -27.565446091364 Eh    ::
         :: -> dispersion             -0.012575492282 Eh    ::
         :: -> Gsolv                  -0.011183279840 Eh    ::
         :: repulsion energy           0.371053562442 Eh    ::

    * Orbital Energies and Occupations

         #    Occupation            Energy/Eh            Energy/eV
      -------------------------------------------------------------
         1        2.0000           -0.7140424             -19.4301
       ...           ...                  ...                  ...
        12        2.0000           -0.5418333             -14.7440
        13        2.0000           -0.5174288             -14.0800
        14        2.0000           -0.5163049             -14.0494
        15        2.0000           -0.4952115             -13.4754
        16        2.0000           -0.4805112             -13.0754
        17        2.0000           -0.4742225             -12.9043
        18        2.0000           -0.4729482             -12.8696
        19        2.0000           -0.4612997             -12.5526
        20        2.0000           -0.4533303             -12.3357
        21        2.0000           -0.4310912             -11.7306
        22        2.0000           -0.4200321             -11.4297
        23        2.0000           -0.4063276             -11.0567
        24        2.0000           -0.3661953              -9.9647 (HOMO)
        25                         -0.2249451              -6.1211 (LUMO)
        26                         -0.2049277              -5.5764
        27                         -0.0859743              -2.3395
        28                          0.0252365               0.6867
        29                          0.0759767               2.0674
        30                          0.1162207               3.1625
        31                          0.1308993               3.5620
        32                          0.1468602               3.9963
        33                          0.1603053               4.3621
        34                          0.1787892               4.8651
        35                          0.2036584               5.5418
       ...                                ...                  ...
        44                          0.6654208              18.1070
      -------------------------------------------------------------
                  HL-Gap            0.1412501 Eh            3.8436 eV

     #   Z          covCN         q      C6AA      α(0)
     1   6 C        2.862     0.129    25.181     8.225
     2   6 C        2.918    -0.071    29.776     8.948
     3   6 C        2.921    -0.064    29.601     8.922
     4   6 C        2.844     0.134    25.059     8.204
     5   6 C        2.918    -0.075    29.881     8.964
     6   6 C        2.921    -0.063    29.566     8.917
     7   1 H        0.926     0.051     2.303     2.373
     8   1 H        0.926     0.053     2.280     2.361
     9   8 O        1.659    -0.461    22.074     6.343
    10   1 H        0.804     0.372     0.540     1.154
    11   1 H        0.926     0.053     2.284     2.363
    12   1 H        0.926     0.050     2.326     2.385
    13   8 O        1.704    -0.310    19.174     5.912
    14   6 C        3.641     0.023    20.536     6.516
    15   1 H        0.925     0.078     1.999     2.211
    16   1 H        0.924     0.051     2.303     2.373
    17   1 H        0.924     0.051     2.303     2.373

Wiberg/Mayer (AO) data.
largest (>0.10) Wiberg bond orders for each atom

     #   Z sym  total        # sym  WBO       # sym  WBO       # sym  WBO
 ---------------------------------------------------------------------------
     1   6 C    3.933 --     2 C    1.376     6 C    1.356    13 O    1.043
     2   6 C    3.988 --     3 C    1.445     1 C    1.376    12 H    0.965
                             5 C    0.102
     3   6 C    3.988 --     2 C    1.445     4 C    1.376    11 H    0.968
                             6 C    0.110
     4   6 C    3.941 --     3 C    1.376     5 C    1.362     9 O    1.067
     5   6 C    3.986 --     6 C    1.466     4 C    1.362     7 H    0.965
                             2 C    0.102
     6   6 C    3.988 --     5 C    1.466     1 C    1.356     8 H    0.968
                             3 C    0.110
     7   1 H    0.997 --     5 C    0.965
     8   1 H    0.997 --     6 C    0.968
     9   8 O    2.062 --     4 C    1.067    10 H    0.842
    10   1 H    0.862 --     9 O    0.842
    11   1 H    0.997 --     3 C    0.968
    12   1 H    0.998 --     2 C    0.965
    13   8 O    2.189 --     1 C    1.043    14 C    0.974
    14   6 C    3.934 --    15 H    0.978    16 H    0.977    17 H    0.977
                            13 O    0.974
    15   1 H    0.993 --    14 C    0.978
    16   1 H    0.997 --    14 C    0.977
    17   1 H    0.997 --    14 C    0.977
 ---------------------------------------------------------------------------

molecular dipole:
                 x           y           z       tot (Debye)
 q only:        0.039      -0.100      -0.000
   full:        0.054      -0.143       0.000       0.388

 projected vibrational frequencies (cm⁻¹)
eigval :       -0.00    -0.00    -0.00     0.00     0.00     0.00
eigval :       79.19   150.98   222.42   234.21   361.66   367.59
eigval :      371.12   392.03   403.78   497.84   502.38   615.10
eigval :      664.86   728.26   801.08   853.15   858.66   890.19
eigval :      906.96  1001.78  1048.23  1107.95  1115.76  1129.51
eigval :     1151.62  1179.04  1189.34  1272.60  1284.10  1336.55
eigval :     1389.33  1426.37  1459.99  1471.72  1480.21  1583.32
eigval :     1616.78  2939.21  2952.86  3033.25  3077.91  3101.47
eigval :     3107.12  3114.37  3463.62

   temp. (K)  partition function   enthalpy   heat capacity  entropy
                                   cal/mol     cal/K/mol   cal/K/mol   J/K/mol
 298.15  VIB   51.1                 3459.380     26.164     19.305
         ROT  0.430E+06              888.752      2.981     28.758
         INT  0.220E+08             4348.132     29.144     48.064
         TR   0.134E+28             1481.254      4.968     40.344
         TOT                        5829.3864    34.1126    88.4077   369.8978

       T/K    H(0)-H(T)+PV         H(T)/Eh          T*S/Eh         G(T)/Eh
   ------------------------------------------------------------------------
    298.15    0.928972E-02    0.141276E+00    0.420054E-01    0.992711E-01
   ------------------------------------------------------------------------

         :::::::::::::::::::::::::::::::::::::::::::::::::::::
         ::                  THERMODYNAMIC                  ::
         :::::::::::::::::::::::::::::::::::::::::::::::::::::
         :: total free energy         -27.095122051457 Eh   ::
         ::.................................................::
         :: total energy              -27.194393137715 Eh   ::
         :: zero point energy           0.131986718968 Eh   ::
         :: G(RRHO) w/o ZPVE           -0.032715632711 Eh   ::
         :: G(RRHO) contrib.            0.099271086258 Eh   ::
         :::::::::::::::::::::::::::::::::::::::::::::::::::::

           -------------------------------------------------
          | TOTAL ENERGY              -27.194393137715 Eh   |
          | TOTAL ENTHALPY            -27.053116700192 Eh   |
          | TOTAL FREE ENERGY         -27.095122051457 Eh   |
          | GRADIENT NORM               0.000610020420 Eh/α |
          | HOMO-LUMO GAP               3.843611359123 eV   |
           -------------------------------------------------

 * finished run on 2021/11/15 at 09:36:12.395
