   * xtb version 6.4.1 (afa7bdf) compiled by 'ehlert@majestix' on 2021-06-10
          program call               : xtb 42_3-fluoro-L-tyrosine.xyz --gfn2 --chrg 0 --uhf 0 --alpb water --ohess -P 1
          number of atoms            :                    24
          number of electrons        :                    76
          charge                     :                     0

   ID    Z sym.   atoms
    1    8 O      1-3
    2    7 N      4
    3    6 C      5-13
    4    1 H      14-23
    5    9 F      24

        Solvent                        water
        Solvent mass                       1.8000E+01 g/mol
          :  Hamiltonian                  GFN2-xTB          :
 * total energy  :   -44.2459302 Eh     change       -0.9156977E-09 Eh
 * total energy  :   -44.2483160 Eh     change       -0.2385735E-02 Eh
 * total energy  :   -44.2489090 Eh     change       -0.5930031E-03 Eh
 * total energy  :   -44.2491766 Eh     change       -0.2675989E-03 Eh
 * total energy  :   -44.2493156 Eh     change       -0.1390586E-03 Eh
 * total energy  :   -44.2493531 Eh     change       -0.3746784E-04 Eh
 * total energy  :   -44.2493773 Eh     change       -0.2415469E-04 Eh
 * total energy  :   -44.2493908 Eh     change       -0.1355456E-04 Eh
 * total energy  :   -44.2494056 Eh     change       -0.1483589E-04 Eh
 * total energy  :   -44.2494183 Eh     change       -0.1268739E-04 Eh
 * total energy  :   -44.2494308 Eh     change       -0.1249551E-04 Eh
 * total energy  :   -44.2494430 Eh     change       -0.1216264E-04 Eh
 * total energy  :   -44.2494508 Eh     change       -0.7777125E-05 Eh
 * total energy  :   -44.2494546 Eh     change       -0.3840860E-05 Eh
   *** GEOMETRY OPTIMIZATION CONVERGED AFTER 14 ITERATIONS ***

 final structure:
================
24
 xtb: 6.4.1 (afa7bdf)
O        -4.30455104001598   -0.46760645945980    0.43219564448624
O         4.34222608047107   -0.50759935560848    0.28381910416529
O        -3.76108985158108    1.46056078632563   -0.57439925086829
N        -2.02590887589254   -1.15211815152840    1.15786002017787
C        -1.18293884136857   -0.00618676230559   -0.89074897116517
C        -2.00030286374304    0.11206739023169    0.39496466395374
C         0.28798839792828   -0.13190363129160   -0.60608412782370
C         1.01616378102695    0.98376735781941   -0.20959090709094
C         0.94297578215062   -1.35457061315844   -0.69855542771592
C         2.35486489233303    0.84984542688475    0.08081441657840
C         2.28783821975324   -1.47524740779931   -0.40349500555447
C        -3.51816515434753    0.41987523600467    0.03640633510134
C         3.02789880295253   -0.36707435916769   -0.00192720149922
H        -1.38258379895040    0.89219780326768   -1.47774397429935
H        -1.53803256787683   -0.86213116178256   -1.46587769457403
H        -1.62882853602042    0.93955388263807    0.99934468575307
H         0.55354652719878    1.95501069035469   -0.13440092919315
H         0.40506268769152   -2.22956829114035   -1.02874954811426
H         2.79608613440269   -2.42210798669733   -0.48006970626883
H        -1.47903848229150   -1.88938478018355    0.70685670773247
H        -3.07441154938623   -1.37393129222553    1.10752582104366
H         4.73458530354417    0.33914539094199    0.54814245266514
H        -1.73883666334877   -1.05176413771886    2.13270921678506
F         3.07250361537019    1.95610342559891    0.46856767572481

          :  Hamiltonian                  GFN2-xTB          :
         :: gradient norm              0.000472259979 Eh/a0 ::
         :: HOMO-LUMO gap              3.871566852171 eV    ::
         :: SCC energy               -44.745773619639 Eh    ::
         :: -> dispersion             -0.020723461543 Eh    ::
         :: -> Gsolv                  -0.072395459241 Eh    ::
         :: repulsion energy           0.496256579928 Eh    ::

    * Orbital Energies and Occupations

         #    Occupation            Energy/Eh            Energy/eV
      -------------------------------------------------------------
         1        2.0000           -0.8294081             -22.5693
       ...           ...                  ...                  ...
        26        2.0000           -0.5041011             -13.7173
        27        2.0000           -0.4965449             -13.5117
        28        2.0000           -0.4940267             -13.4432
        29        2.0000           -0.4819452             -13.1144
        30        2.0000           -0.4625022             -12.5853
        31        2.0000           -0.4608746             -12.5410
        32        2.0000           -0.4558619             -12.4046
        33        2.0000           -0.4397768             -11.9669
        34        2.0000           -0.4205495             -11.4437
        35        2.0000           -0.4194450             -11.4137
        36        2.0000           -0.4100271             -11.1574
        37        2.0000           -0.3957112             -10.7679
        38        2.0000           -0.3823213             -10.4035 (HOMO)
        39                         -0.2400439              -6.5319 (LUMO)
        40                         -0.2320676              -6.3149
        41                         -0.1902670              -5.1774
        42                         -0.1077918              -2.9332
        43                         -0.0340251              -0.9259
        44                          0.0092902               0.2528
        45                          0.0445452               1.2121
        46                          0.0587696               1.5992
        47                          0.0666628               1.8140
        48                          0.0910454               2.4775
        49                          0.1155029               3.1430
       ...                                ...                  ...
        66                          0.6513700              17.7247
      -------------------------------------------------------------
                  HL-Gap            0.1422775 Eh            3.8716 eV

     #   Z          covCN         q      C6AA      α(0)
     1   8 O        0.857    -0.602    26.166     6.858
     2   8 O        1.659    -0.431    21.465     6.254
     3   8 O        0.856    -0.605    26.241     6.868
     4   7 N        3.483    -0.188    25.069     7.436
     5   6 C        3.810    -0.077    21.964     6.671
     6   6 C        3.776    -0.014    20.854     6.506
     7   6 C        2.973     0.007    27.861     8.658
     8   6 C        2.921    -0.060    29.494     8.906
     9   6 C        2.923    -0.052    29.280     8.874
    10   6 C        2.786     0.130    25.146     8.214
    11   6 C        2.923    -0.064    29.590     8.920
    12   6 C        2.682     0.367    20.778     7.459
    13   6 C        2.841     0.135    25.037     8.200
    14   1 H        0.924     0.074     2.047     2.237
    15   1 H        0.924     0.072     2.064     2.247
    16   1 H        0.925     0.082     1.954     2.186
    17   1 H        0.926     0.068     2.111     2.272
    18   1 H        0.926     0.077     2.015     2.220
    19   1 H        0.926     0.080     1.982     2.202
    20   1 H        0.859     0.293     0.736     1.344
    21   1 H        0.854     0.313     0.675     1.288
    22   1 H        0.804     0.376     0.531     1.145
    23   1 H        0.860     0.304     0.700     1.311
    24   9 F        0.785    -0.284    12.139     4.115

Wiberg/Mayer (AO) data.
largest (>0.10) Wiberg bond orders for each atom

     #   Z sym  total        # sym  WBO       # sym  WBO       # sym  WBO
 ---------------------------------------------------------------------------
     1   8 O    1.889 --    12 C    1.470     3 O    0.216
     2   8 O    2.103 --    13 C    1.095    22 H    0.839
     3   8 O    1.862 --    12 C    1.559     1 O    0.216
     4   7 N    3.629 --     6 C    0.971    23 H    0.896    20 H    0.896
                            21 H    0.795
     5   6 C    3.988 --     7 C    1.010     6 C    0.981    15 H    0.968
                            14 H    0.958
     6   6 C    3.935 --     5 C    0.981     4 N    0.971    16 H    0.958
                            12 C    0.871
     7   6 C    3.987 --     9 C    1.407     8 C    1.396     5 C    1.010
     8   6 C    3.986 --    10 C    1.427     7 C    1.396    17 H    0.963
                            11 C    0.107
     9   6 C    3.986 --    11 C    1.453     7 C    1.407    18 H    0.963
    10   6 C    3.852 --     8 C    1.427    13 C    1.327    24 F    0.905
    11   6 C    3.983 --     9 C    1.453    13 C    1.360    19 H    0.964
                             8 C    0.107
    12   6 C    3.932 --     3 O    1.559     1 O    1.470     6 C    0.871
    13   6 C    3.943 --    11 C    1.360    10 C    1.327     2 O    1.095
    14   1 H    0.994 --     5 C    0.958
    15   1 H    0.994 --     5 C    0.968
    16   1 H    0.993 --     6 C    0.958
    17   1 H    0.995 --     8 C    0.963
    18   1 H    0.994 --     9 C    0.963
    19   1 H    0.993 --    11 C    0.964
    20   1 H    0.914 --     4 N    0.896
    21   1 H    0.902 --     4 N    0.795
    22   1 H    0.859 --     2 O    0.839
    23   1 H    0.907 --     4 N    0.896
    24   9 F    1.023 --    10 C    0.905
 ---------------------------------------------------------------------------

molecular dipole:
                 x           y           z       tot (Debye)
 q only:        3.007      -3.270       1.742
   full:        3.241      -3.003       1.849      12.174

 projected vibrational frequencies (cm⁻¹)
eigval :       -0.00    -0.00    -0.00    -0.00     0.00     0.00
eigval :       25.96    35.55    57.69    70.09   143.76   169.49
eigval :      222.98   263.58   285.65   329.86   349.02   362.03
eigval :      410.52   418.68   423.19   428.63   495.63   530.65
eigval :      549.25   581.97   645.49   671.53   697.95   746.89
eigval :      799.08   830.38   852.21   882.78   890.68   914.69
eigval :      927.93   957.63  1017.73  1049.48  1070.98  1115.16
eigval :     1125.42  1148.21  1153.21  1188.95  1193.18  1244.22
eigval :     1256.21  1287.17  1303.47  1318.38  1328.74  1340.76
eigval :     1394.67  1397.54  1425.96  1469.90  1490.11  1572.11
eigval :     1608.12  1735.99  2547.66  2993.77  3002.96  3009.67
eigval :     3094.72  3109.68  3122.59  3299.67  3321.99  3442.32

   temp. (K)  partition function   enthalpy   heat capacity  entropy
                                   cal/mol     cal/K/mol   cal/K/mol   J/K/mol
 298.15  VIB  0.485E+05             6514.450     43.759     39.611
         ROT  0.230E+07              888.752      2.981     32.088
         INT  0.111E+12             7403.202     46.740     71.699
         TR   0.272E+28             1481.254      4.968     41.753
         TOT                        8884.4564    51.7082   113.4524   474.6849

       T/K    H(0)-H(T)+PV         H(T)/Eh          T*S/Eh         G(T)/Eh
   ------------------------------------------------------------------------
    298.15    0.141583E-01    0.192202E+00    0.539049E-01    0.138297E+00
   ------------------------------------------------------------------------

         :::::::::::::::::::::::::::::::::::::::::::::::::::::
         ::                  THERMODYNAMIC                  ::
         :::::::::::::::::::::::::::::::::::::::::::::::::::::
         :: total free energy         -44.111157647891 Eh   ::
         ::.................................................::
         :: total energy              -44.249454617921 Eh   ::
         :: zero point energy           0.178043593552 Eh   ::
         :: G(RRHO) w/o ZPVE           -0.039746623521 Eh   ::
         :: G(RRHO) contrib.            0.138296970031 Eh   ::
         :::::::::::::::::::::::::::::::::::::::::::::::::::::

           -------------------------------------------------
          | TOTAL ENERGY              -44.249454617921 Eh   |
          | TOTAL ENTHALPY            -44.057252741917 Eh   |
          | TOTAL FREE ENERGY         -44.111157647891 Eh   |
          | GRADIENT NORM               0.000472352158 Eh/α |
          | HOMO-LUMO GAP               3.871566684753 eV   |
           -------------------------------------------------

 * finished run on 2021/11/15 at 09:36:28.565
