   * xtb version 6.4.1 (afa7bdf) compiled by 'ehlert@majestix' on 2021-06-10
          program call               : xtb 26_4-methylaniline.xyz --gfn2 --chrg 0 --uhf 0 --alpb water --ohess -P 1
          number of atoms            :                    17
          number of electrons        :                    42
          charge                     :                     0

   ID    Z sym.   atoms
    1    6 C      1-6, 14
    2    1 H      7, 8, 10-13, 15-17
    3    7 N      9

        Solvent                        water
        Solvent mass                       1.8000E+01 g/mol
          :  Hamiltonian                  GFN2-xTB          :
 * total energy  :   -22.4907285 Eh     change       -0.9769963E-11 Eh
 * total energy  :   -22.4919035 Eh     change       -0.1174952E-02 Eh
 * total energy  :   -22.4920660 Eh     change       -0.1625324E-03 Eh
 * total energy  :   -22.4921328 Eh     change       -0.6673351E-04 Eh
 * total energy  :   -22.4921758 Eh     change       -0.4303899E-04 Eh
 * total energy  :   -22.4921838 Eh     change       -0.8024890E-05 Eh
 * total energy  :   -22.4921849 Eh     change       -0.1098358E-05 Eh
   *** GEOMETRY OPTIMIZATION CONVERGED AFTER 7 ITERATIONS ***

 final structure:
================
17
 xtb: 6.4.1 (afa7bdf)
C         1.38896384992920    0.00192793395224   -0.01320165306206
C         0.67349477816849   -1.18966226512729   -0.01349840115795
C        -0.70652698974868   -1.19717462438174   -0.01645930973693
C        -1.42531002023715   -0.00004936454082   -0.01643845295907
C        -0.70816917657459    1.19763660534664   -0.01636164519291
C         0.67234279214289    1.19206221855422   -0.01337231013052
H         1.20470296938478    2.13314337025543   -0.01557861349043
H        -1.24442294032842    2.13603935534633   -0.01858897177826
N        -2.80285157105652   -0.00110845022810    0.05377364821017
H        -3.25858471984216    0.84650969255841   -0.24144762420207
H        -3.25735538660160   -0.84915970674396   -0.24208825070212
H        -1.24175501463305   -2.13616204219312   -0.01877071023862
H         1.20802989641714   -2.12948032196895   -0.01579339780313
C         2.88900681135230   -0.00057128421427    0.00861115070468
H         3.28298140784772    0.92025723994293   -0.41485549866679
H         3.25012812695859   -0.08352512144927    1.03435420370658
H         3.28144618682108   -0.84449723510867   -0.55449616350056

          :  Hamiltonian                  GFN2-xTB          :
         :: gradient norm              0.000177630484 Eh/a0 ::
         :: HOMO-LUMO gap              3.768920566197 eV    ::
         :: SCC energy               -22.893297479953 Eh    ::
         :: -> dispersion             -0.012596211130 Eh    ::
         :: -> Gsolv                  -0.006688113081 Eh    ::
         :: repulsion energy           0.401105488618 Eh    ::

    * Orbital Energies and Occupations

         #    Occupation            Energy/Eh            Energy/eV
      -------------------------------------------------------------
         1        2.0000           -0.6395087             -17.4019
       ...           ...                  ...                  ...
         9        2.0000           -0.5185904             -14.1116
        10        2.0000           -0.4944104             -13.4536
        11        2.0000           -0.4858029             -13.2194
        12        2.0000           -0.4774972             -12.9934
        13        2.0000           -0.4713299             -12.8255
        14        2.0000           -0.4664536             -12.6928
        15        2.0000           -0.4658763             -12.6771
        16        2.0000           -0.4455374             -12.1237
        17        2.0000           -0.4256197             -11.5817
        18        2.0000           -0.4168659             -11.3435
        19        2.0000           -0.4088981             -11.1267
        20        2.0000           -0.3909487             -10.6383
        21        2.0000           -0.3472271              -9.4485 (HOMO)
        22                         -0.2087218              -5.6796 (LUMO)
        23                         -0.1949184              -5.3040
        24                         -0.0756298              -2.0580
        25                          0.0530358               1.4432
        26                          0.1169185               3.1815
        27                          0.1465967               3.9891
        28                          0.1520423               4.1373
        29                          0.1750036               4.7621
        30                          0.1903498               5.1797
        31                          0.1997832               5.4364
        32                          0.2315226               6.3001
       ...                                ...                  ...
        41                          0.6710519              18.2603
      -------------------------------------------------------------
                  HL-Gap            0.1385053 Eh            3.7689 eV

     #   Z          covCN         q      C6AA      α(0)
     1   6 C        2.965    -0.007    28.187     8.708
     2   6 C        2.924    -0.047    29.177     8.858
     3   6 C        2.923    -0.071    29.762     8.946
     4   6 C        2.898     0.073    26.372     8.420
     5   6 C        2.923    -0.071    29.766     8.947
     6   6 C        2.924    -0.047    29.174     8.858
     7   1 H        0.925     0.023     2.692     2.566
     8   1 H        0.926     0.023     2.682     2.561
     9   7 N        2.640    -0.322    28.299     7.901
    10   1 H        0.860     0.193     1.143     1.675
    11   1 H        0.860     0.193     1.142     1.674
    12   1 H        0.926     0.024     2.680     2.560
    13   1 H        0.926     0.023     2.684     2.562
    14   6 C        3.757    -0.116    22.765     6.803
    15   1 H        0.925     0.041     2.437     2.441
    16   1 H        0.924     0.046     2.365     2.405
    17   1 H        0.925     0.042     2.423     2.434

Wiberg/Mayer (AO) data.
largest (>0.10) Wiberg bond orders for each atom

     #   Z sym  total        # sym  WBO       # sym  WBO       # sym  WBO
 ---------------------------------------------------------------------------
     1   6 C    3.988 --     6 C    1.403     2 C    1.400    14 C    1.023
     2   6 C    3.992 --     3 C    1.466     1 C    1.400    13 H    0.970
                             5 C    0.103
     3   6 C    3.987 --     2 C    1.466     4 C    1.343    12 H    0.969
                             6 C    0.102
     4   6 C    3.975 --     5 C    1.345     3 C    1.343     9 N    1.164
     5   6 C    3.987 --     6 C    1.463     4 C    1.345     8 H    0.969
                             2 C    0.103
     6   6 C    3.992 --     5 C    1.463     1 C    1.403     7 H    0.970
                             3 C    0.102
     7   1 H    0.999 --     6 C    0.970
     8   1 H    0.999 --     5 C    0.969
     9   7 N    3.233 --     4 C    1.164    10 H    0.944    11 H    0.944
    10   1 H    0.962 --     9 N    0.944
    11   1 H    0.962 --     9 N    0.944
    12   1 H    0.999 --     3 C    0.969
    13   1 H    0.999 --     2 C    0.970
    14   6 C    3.996 --     1 C    1.023    15 H    0.984    17 H    0.982
                            16 H    0.970
    15   1 H    0.998 --    14 C    0.984
    16   1 H    0.996 --    14 C    0.970
    17   1 H    0.997 --    14 C    0.982
 ---------------------------------------------------------------------------

molecular dipole:
                 x           y           z       tot (Debye)
 q only:       -0.651      -0.006      -0.195
   full:       -0.666      -0.007      -0.382       1.952

 projected vibrational frequencies (cm⁻¹)
eigval :       -0.00    -0.00    -0.00    -0.00     0.00     0.00
eigval :       20.98   129.86   296.33   324.86   364.39   386.16
eigval :      405.18   443.47   481.00   549.61   614.37   660.71
eigval :      759.00   790.21   858.37   875.32   900.01   917.60
eigval :     1003.13  1016.31  1031.30  1034.06  1146.06  1198.73
eigval :     1230.67  1288.37  1316.27  1336.73  1403.34  1427.51
eigval :     1471.69  1482.70  1485.64  1516.75  1577.83  1621.78
eigval :     2987.18  3027.20  3034.39  3054.42  3057.49  3066.70
eigval :     3074.68  3467.56  3522.90

   temp. (K)  partition function   enthalpy   heat capacity  entropy
                                   cal/mol     cal/K/mol   cal/K/mol   J/K/mol
 298.15  VIB   107.                 3140.247     23.992     17.742
         ROT  0.281E+06              888.752      2.981     27.911
         INT  0.300E+08             4029.000     26.973     45.653
         TR   0.107E+28             1481.254      4.968     39.906
         TOT                        5510.2535    31.9409    85.5587   357.9777

       T/K    H(0)-H(T)+PV         H(T)/Eh          T*S/Eh         G(T)/Eh
   ------------------------------------------------------------------------
    298.15    0.878115E-02    0.149250E+00    0.406517E-01    0.108599E+00
   ------------------------------------------------------------------------

         :::::::::::::::::::::::::::::::::::::::::::::::::::::
         ::                  THERMODYNAMIC                  ::
         :::::::::::::::::::::::::::::::::::::::::::::::::::::
         :: total free energy         -22.383586266790 Eh   ::
         ::.................................................::
         :: total energy              -22.492184923663 Eh   ::
         :: zero point energy           0.140469217240 Eh   ::
         :: G(RRHO) w/o ZPVE           -0.031870560368 Eh   ::
         :: G(RRHO) contrib.            0.108598656873 Eh   ::
         :::::::::::::::::::::::::::::::::::::::::::::::::::::

           -------------------------------------------------
          | TOTAL ENERGY              -22.492184923663 Eh   |
          | TOTAL ENTHALPY            -22.342934558515 Eh   |
          | TOTAL FREE ENERGY         -22.383586266790 Eh   |
          | GRADIENT NORM               0.000177855952 Eh/α |
          | HOMO-LUMO GAP               3.768920248247 eV   |
           -------------------------------------------------

 * finished run on 2021/11/15 at 09:36:19.850
