   * xtb version 6.4.1 (afa7bdf) compiled by 'ehlert@majestix' on 2021-06-10
          program call               : xtb 20_2-methoxy-5-nitroaniline.xyz --gfn2 --chrg 0 --uhf 0 --alpb water --ohess -P 1
          number of atoms            :                    20
          number of electrons        :                    64
          charge                     :                     0

   ID    Z sym.   atoms
    1    6 C      1-6, 17
    2    1 H      7, 8, 10, 11, 15, 18-20
    3    7 N      9, 12
    4    8 O      13, 14, 16

        Solvent                        water
        Solvent mass                       1.8000E+01 g/mol
          :  Hamiltonian                  GFN2-xTB          :
 * total energy  :   -37.0289592 Eh     change       -0.1807692E-09 Eh
 * total energy  :   -37.0305212 Eh     change       -0.1561959E-02 Eh
 * total energy  :   -37.0311160 Eh     change       -0.5947859E-03 Eh
 * total energy  :   -37.0312434 Eh     change       -0.1273914E-03 Eh
 * total energy  :   -37.0313711 Eh     change       -0.1277478E-03 Eh
 * total energy  :   -37.0314104 Eh     change       -0.3933012E-04 Eh
 * total energy  :   -37.0314390 Eh     change       -0.2855509E-04 Eh
 * total energy  :   -37.0314499 Eh     change       -0.1089220E-04 Eh
 * total energy  :   -37.0314529 Eh     change       -0.3000753E-05 Eh
   *** GEOMETRY OPTIMIZATION CONVERGED AFTER 9 ITERATIONS ***

 final structure:
================
20
 xtb: 6.4.1 (afa7bdf)
C        -0.59273203606588   -1.34465764950198    0.01235933017464
C         0.78792998335350   -1.32217418643497    0.00197633900558
C         1.47642231816158   -0.11533391742057   -0.01891696616966
C         0.76609020818981    1.12313334678677   -0.02971620574678
C        -0.61918176787583    1.08551711811910   -0.02452559771515
C        -1.29238282775903   -0.13927743199173   -0.00176927253692
H         1.32410935722741   -2.25589215841802    0.00943878972149
H        -1.19437363311668    1.99715726342035   -0.03442929774032
N         1.46375902360709    2.28631721424642    0.00594882966365
H         2.45012219941107    2.24043305057004   -0.18248920309912
H         0.97647288173165    3.14258077046939   -0.18724302501760
N        -2.69534232755504   -0.15372284203383    0.00206894598966
O        -3.28320811241367   -1.23529822426040    0.02120104275961
O        -3.30403449727869    0.91563380554762   -0.01481629821965
H        -1.13834419321208   -2.27350020728581    0.02905695470892
O         2.82007204659030    0.00770594874527   -0.03936046744748
C         3.62725190696339   -1.15777027630913   -0.02500093026341
H         3.44132478354016   -1.77504666600819   -0.90618164547556
H         4.65186291889104   -0.79413559485795   -0.04012403519123
H         3.45631476760990   -1.74104136338238    0.88172171259933

          :  Hamiltonian                  GFN2-xTB          :
         :: gradient norm              0.000620348531 Eh/a0 ::
         :: HOMO-LUMO gap              1.322427194064 eV    ::
         :: SCC energy               -37.459162039330 Eh    ::
         :: -> dispersion             -0.017024057941 Eh    ::
         :: -> Gsolv                  -0.026401456384 Eh    ::
         :: repulsion energy           0.427688851003 Eh    ::

    * Orbital Energies and Occupations

         #    Occupation            Energy/Eh            Energy/eV
      -------------------------------------------------------------
         1        2.0000           -0.7636574             -20.7802
       ...           ...                  ...                  ...
        20        2.0000           -0.5067986             -13.7907
        21        2.0000           -0.5007452             -13.6260
        22        2.0000           -0.4934956             -13.4287
        23        2.0000           -0.4819836             -13.1154
        24        2.0000           -0.4693351             -12.7713
        25        2.0000           -0.4646963             -12.6450
        26        2.0000           -0.4640526             -12.6275
        27        2.0000           -0.4603130             -12.5258
        28        2.0000           -0.4493664             -12.2279
        29        2.0000           -0.4416646             -12.0183
        30        2.0000           -0.4374985             -11.9049
        31        2.0000           -0.4119536             -11.2098
        32        2.0000           -0.3665776              -9.9751 (HOMO)
        33                         -0.3179794              -8.6527 (LUMO)
        34                         -0.2280192              -6.2047
        35                         -0.2127916              -5.7904
        36                         -0.0992736              -2.7014
        37                          0.0052516               0.1429
        38                          0.0118613               0.3228
        39                          0.0481028               1.3089
        40                          0.1133235               3.0837
        41                          0.1192028               3.2437
        42                          0.1537308               4.1832
        43                          0.1596612               4.3446
       ...                                ...                  ...
        56                          0.6510199              17.7152
      -------------------------------------------------------------
                  HL-Gap            0.0485982 Eh            1.3224 eV

     #   Z          covCN         q      C6AA      α(0)
     1   6 C        2.917    -0.038    28.948     8.823
     2   6 C        2.914    -0.068    29.685     8.934
     3   6 C        2.867     0.137    25.010     8.198
     4   6 C        2.894     0.076    26.302     8.409
     5   6 C        2.921    -0.070    29.744     8.944
     6   6 C        2.912    -0.001    28.061     8.686
     7   1 H        0.926     0.077     2.006     2.215
     8   1 H        0.926     0.075     2.033     2.230
     9   7 N        2.643    -0.283    27.301     7.760
    10   1 H        0.860     0.230     0.967     1.540
    11   1 H        0.860     0.223     0.997     1.564
    12   7 N        2.764     0.539    13.603     5.478
    13   8 O        0.930    -0.479    23.284     6.471
    14   8 O        0.930    -0.475    23.206     6.460
    15   1 H        0.926     0.074     2.042     2.234
    16   8 O        1.705    -0.253    18.196     5.759
    17   6 C        3.642     0.004    20.876     6.569
    18   1 H        0.924     0.069     2.100     2.266
    19   1 H        0.925     0.096     1.821     2.110
    20   1 H        0.924     0.069     2.096     2.264

Wiberg/Mayer (AO) data.
largest (>0.10) Wiberg bond orders for each atom

     #   Z sym  total        # sym  WBO       # sym  WBO       # sym  WBO
 ---------------------------------------------------------------------------
     1   6 C    3.987 --     2 C    1.450     6 C    1.334    15 H    0.963
     2   6 C    3.985 --     1 C    1.450     3 C    1.378     7 H    0.960
     3   6 C    3.943 --     2 C    1.378     4 C    1.200    16 O    1.109
     4   6 C    3.983 --     5 C    1.394     9 N    1.238     3 C    1.200
     5   6 C    3.982 --     4 C    1.394     6 C    1.318     8 H    0.960
     6   6 C    3.944 --     1 C    1.334     5 C    1.318    12 N    1.043
     7   1 H    0.993 --     2 C    0.960
     8   1 H    0.994 --     5 C    0.960
     9   7 N    3.324 --     4 C    1.238    11 H    0.932    10 H    0.927
    10   1 H    0.947 --     9 N    0.927
    11   1 H    0.950 --     9 N    0.932
    12   7 N    3.885 --    14 O    1.387    13 O    1.385     6 C    1.043
    13   8 O    1.833 --    12 N    1.385    14 O    0.293
    14   8 O    1.838 --    12 N    1.387    13 O    0.293
    15   1 H    0.994 --     1 C    0.963
    16   8 O    2.252 --     3 C    1.109    17 C    0.961
    17   6 C    3.917 --    19 H    0.975    20 H    0.974    18 H    0.974
                            16 O    0.961
    18   1 H    0.993 --    17 C    0.974
    19   1 H    0.990 --    17 C    0.975
    20   1 H    0.993 --    17 C    0.974
 ---------------------------------------------------------------------------

molecular dipole:
                 x           y           z       tot (Debye)
 q only:        4.689       0.487      -0.162
   full:        4.591       0.377      -0.278      11.730

 projected vibrational frequencies (cm⁻¹)
eigval :       -0.00    -0.00     0.00     0.00     0.00     0.00
eigval :       65.13    77.15   135.97   174.83   182.21   223.30
eigval :      230.42   310.25   326.60   339.83   369.68   412.70
eigval :      451.76   465.31   525.85   528.16   581.37   623.31
eigval :      674.87   721.71   762.20   793.33   818.98   838.09
eigval :      892.00   957.64  1019.86  1028.50  1106.59  1118.84
eigval :     1135.67  1154.94  1206.18  1239.09  1278.77  1314.57
eigval :     1385.03  1387.90  1410.67  1443.70  1449.65  1460.30
eigval :     1506.01  1518.44  1555.66  1572.97  2968.46  2977.15
eigval :     3043.29  3117.13  3118.39  3129.07  3485.48  3553.39

   temp. (K)  partition function   enthalpy   heat capacity  entropy
                                   cal/mol     cal/K/mol   cal/K/mol   J/K/mol
 298.15  VIB   985.                 5292.000     36.614     31.053
         ROT  0.118E+07              888.752      2.981     30.765
         INT  0.116E+10             6180.753     39.595     61.818
         TR   0.211E+28             1481.254      4.968     41.248
         TOT                        7662.0067    44.5631   103.0668   431.2314

       T/K    H(0)-H(T)+PV         H(T)/Eh          T*S/Eh         G(T)/Eh
   ------------------------------------------------------------------------
    298.15    0.122102E-01    0.158396E+00    0.489703E-01    0.109426E+00
   ------------------------------------------------------------------------

         :::::::::::::::::::::::::::::::::::::::::::::::::::::
         ::                  THERMODYNAMIC                  ::
         :::::::::::::::::::::::::::::::::::::::::::::::::::::
         :: total free energy         -36.922026879945 Eh   ::
         ::.................................................::
         :: total energy              -37.031452892411 Eh   ::
         :: zero point energy           0.146186176275 Eh   ::
         :: G(RRHO) w/o ZPVE           -0.036760163808 Eh   ::
         :: G(RRHO) contrib.            0.109426012467 Eh   ::
         :::::::::::::::::::::::::::::::::::::::::::::::::::::

           -------------------------------------------------
          | TOTAL ENERGY              -37.031452892411 Eh   |
          | TOTAL ENTHALPY            -36.873056531260 Eh   |
          | TOTAL FREE ENERGY         -36.922026879945 Eh   |
          | GRADIENT NORM               0.000620459929 Eh/α |
          | HOMO-LUMO GAP               1.322423643062 eV   |
           -------------------------------------------------

 * finished run on 2021/11/15 at 09:36:18.552
