   * xtb version 6.4.1 (afa7bdf) compiled by 'ehlert@majestix' on 2021-06-10
          program call               : xtb 28_piperidine.xyz --gfn2 --chrg 0 --uhf 0 --alpb water --ohess -P 1
          number of atoms            :                    17
          number of electrons        :                    36
          charge                     :                     0

   ID    Z sym.   atoms
    1    6 C      1-5
    2    1 H      6-15, 17
    3    7 N      16

        Solvent                        water
        Solvent mass                       1.8000E+01 g/mol
          :  Hamiltonian                  GFN2-xTB          :
 * total energy  :   -19.2450720 Eh     change       -0.4883560E-10 Eh
 * total energy  :   -19.2455355 Eh     change       -0.4635790E-03 Eh
 * total energy  :   -19.2460584 Eh     change       -0.5228024E-03 Eh
 * total energy  :   -19.2462912 Eh     change       -0.2328768E-03 Eh
 * total energy  :   -19.2463678 Eh     change       -0.7654809E-04 Eh
 * total energy  :   -19.2463816 Eh     change       -0.1378116E-04 Eh
 * total energy  :   -19.2463840 Eh     change       -0.2451535E-05 Eh
   *** GEOMETRY OPTIMIZATION CONVERGED AFTER 7 ITERATIONS ***

 final structure:
================
17
 xtb: 6.4.1 (afa7bdf)
C         0.01645199578351    0.74743105083399    1.25038739595892
C        -0.65453221105530    1.31365813215534    0.00000000012484
C         0.01645199339463    0.74743105071784   -1.25038739666146
C        -0.00103433773897   -0.78505228601007   -1.19898525860757
C        -0.00103433967221   -0.78505228666846    1.19898525695957
H        -0.49859456800242    1.09289164611157   -2.14769336211515
H        -1.71049329976858    1.03307075787217    0.00000000347238
H        -0.59511103909877    2.40401714886385   -0.00000000000818
H         1.05210833497552    1.09484774150019    1.29825886913820
H        -0.49859456383136    1.09289164664647    2.14769336149875
H        -1.03688591302471   -1.13826326152107   -1.21369702739300
H         0.51508584218964   -1.20285443200091   -2.06642876199984
H        -1.03688591711996   -1.13826326048893    1.21369702580079
H         0.51508583682465   -1.20285443250075    2.06642876220463
H         1.05210833149568    1.09484774253585   -1.29825887156138
N         0.62144656859784   -1.32299325017700    0.00000000060746
H         1.60603628605082   -1.06918570787007    0.00000000258105

          :  Hamiltonian                  GFN2-xTB          :
         :: gradient norm              0.000403958534 Eh/a0 ::
         :: HOMO-LUMO gap             11.042389184636 eV    ::
         :: SCC energy               -19.504380328188 Eh    ::
         :: -> dispersion             -0.010603454319 Eh    ::
         :: -> Gsolv                  -0.002537117178 Eh    ::
         :: repulsion energy           0.257974624772 Eh    ::

    * Orbital Energies and Occupations

         #    Occupation            Energy/Eh            Energy/eV
      -------------------------------------------------------------
         1        2.0000           -0.6401756             -17.4201
       ...           ...                  ...                  ...
         6        2.0000           -0.5580525             -15.1854
         7        2.0000           -0.5254152             -14.2973
         8        2.0000           -0.5088086             -13.8454
         9        2.0000           -0.5066667             -13.7871
        10        2.0000           -0.4933940             -13.4259
        11        2.0000           -0.4856260             -13.2146
        12        2.0000           -0.4667357             -12.7005
        13        2.0000           -0.4578779             -12.4595
        14        2.0000           -0.4414633             -12.0128
        15        2.0000           -0.4392531             -11.9527
        16        2.0000           -0.4242117             -11.5434
        17        2.0000           -0.4222627             -11.4904
        18        2.0000           -0.3515008              -9.5648 (HOMO)
        19                          0.0542995               1.4776 (LUMO)
        20                          0.0885576               2.4098
        21                          0.0924241               2.5150
        22                          0.0985155               2.6807
        23                          0.1023366               2.7847
        24                          0.1274239               3.4674
        25                          0.1453259               3.9545
        26                          0.1738192               4.7299
        27                          0.1799322               4.8962
        28                          0.1855974               5.0504
        29                          0.1980199               5.3884
       ...                                ...                  ...
        35                          0.3015967               8.2069
      -------------------------------------------------------------
                  HL-Gap            0.4058004 Eh           11.0424 eV

     #   Z          covCN         q      C6AA      α(0)
     1   6 C        3.803    -0.067    21.776     6.644
     2   6 C        3.806    -0.057    21.598     6.616
     3   6 C        3.803    -0.067    21.776     6.644
     4   6 C        3.750     0.008    20.499     6.457
     5   6 C        3.750     0.008    20.499     6.457
     6   1 H        0.924     0.030     2.581     2.513
     7   1 H        0.924     0.032     2.553     2.499
     8   1 H        0.924     0.028     2.614     2.528
     9   1 H        0.924     0.029     2.601     2.522
    10   1 H        0.924     0.030     2.581     2.513
    11   1 H        0.924     0.034     2.529     2.487
    12   1 H        0.924     0.032     2.561     2.502
    13   1 H        0.924     0.034     2.529     2.487
    14   1 H        0.924     0.032     2.561     2.502
    15   1 H        0.924     0.029     2.601     2.522
    16   7 N        2.677    -0.290    27.474     7.785
    17   1 H        0.860     0.153     1.381     1.841

Wiberg/Mayer (AO) data.
largest (>0.10) Wiberg bond orders for each atom

     #   Z sym  total        # sym  WBO       # sym  WBO       # sym  WBO
 ---------------------------------------------------------------------------
     1   6 C    3.998 --     2 C    1.009     5 C    0.995     9 H    0.978
                            10 H    0.977
     2   6 C    3.998 --     3 C    1.009     1 C    1.009     7 H    0.978
                             8 H    0.978
     3   6 C    3.998 --     2 C    1.009     4 C    0.995    15 H    0.978
                             6 H    0.977
     4   6 C    3.987 --    16 N    1.016     3 C    0.995    12 H    0.975
                            11 H    0.973
     5   6 C    3.987 --    16 N    1.016     1 C    0.995    14 H    0.975
                            13 H    0.973
     6   1 H    0.999 --     3 C    0.977
     7   1 H    0.999 --     2 C    0.978
     8   1 H    0.999 --     2 C    0.978
     9   1 H    0.999 --     1 C    0.978
    10   1 H    0.999 --     1 C    0.977
    11   1 H    0.999 --     4 C    0.973
    12   1 H    0.999 --     4 C    0.975
    13   1 H    0.999 --     5 C    0.973
    14   1 H    0.999 --     5 C    0.975
    15   1 H    0.999 --     3 C    0.978
    16   7 N    3.063 --     4 C    1.016     5 C    1.016    17 H    0.952
    17   1 H    0.977 --    16 N    0.952
 ---------------------------------------------------------------------------

molecular dipole:
                 x           y           z       tot (Debye)
 q only:        0.040       0.206      -0.000
   full:        0.114       0.535      -0.000       1.389

 projected vibrational frequencies (cm⁻¹)
eigval :        0.00     0.00     0.00     0.00     0.00     0.00
eigval :      231.86   248.15   394.50   426.63   441.22   563.03
eigval :      823.55   833.85   873.52   909.88   932.20   948.00
eigval :      959.89  1007.49  1066.15  1089.53  1107.19  1124.30
eigval :     1176.09  1191.48  1234.45  1247.47  1284.29  1303.23
eigval :     1326.57  1327.90  1344.05  1346.99  1404.72  1472.60
eigval :     1479.16  1482.26  1483.03  1497.80  2940.43  2942.61
eigval :     2952.78  2956.04  2962.95  2964.36  2966.23  2973.60
eigval :     2983.83  2987.96  3349.35

   temp. (K)  partition function   enthalpy   heat capacity  entropy
                                   cal/mol     cal/K/mol   cal/K/mol   J/K/mol
 298.15  VIB   4.05                 1718.623     16.120      8.545
         ROT  0.120E+06              888.752      2.981     26.222
         INT  0.486E+06             2607.375     19.101     34.766
         TR   0.760E+27             1481.254      4.968     39.221
         TOT                        4088.6293    24.0694    73.9870   309.5615

       T/K    H(0)-H(T)+PV         H(T)/Eh          T*S/Eh         G(T)/Eh
   ------------------------------------------------------------------------
    298.15    0.651565E-02    0.162714E+00    0.351536E-01    0.127560E+00
   ------------------------------------------------------------------------

         :::::::::::::::::::::::::::::::::::::::::::::::::::::
         ::                  THERMODYNAMIC                  ::
         :::::::::::::::::::::::::::::::::::::::::::::::::::::
         :: total free energy         -19.118823563564 Eh   ::
         ::.................................................::
         :: total energy              -19.246384007610 Eh   ::
         :: zero point energy           0.156198398142 Eh   ::
         :: G(RRHO) w/o ZPVE           -0.028637954096 Eh   ::
         :: G(RRHO) contrib.            0.127560444046 Eh   ::
         :::::::::::::::::::::::::::::::::::::::::::::::::::::

           -------------------------------------------------
          | TOTAL ENERGY              -19.246384007610 Eh   |
          | TOTAL ENTHALPY            -19.083669964016 Eh   |
          | TOTAL FREE ENERGY         -19.118823563564 Eh   |
          | GRADIENT NORM               0.000403936169 Eh/α |
          | HOMO-LUMO GAP              11.042390002139 eV   |
           -------------------------------------------------

 * finished run on 2021/11/15 at 09:36:20.532
