   * xtb version 6.4.1 (afa7bdf) compiled by 'ehlert@majestix' on 2021-06-10
          program call               : xtb 07_4-ethylphenol.xyz --gfn2 --chrg 0 --uhf 0 --alpb water --ohess -P 1
          number of atoms            :                    19
          number of electrons        :                    48
          charge                     :                     0

   ID    Z sym.   atoms
    1    6 C      1-6, 13, 16
    2    1 H      7, 8, 10-12, 14, 15, 17-19
    3    8 O      9

        Solvent                        water
        Solvent mass                       1.8000E+01 g/mol
          :  Hamiltonian                  GFN2-xTB          :
 * total energy  :   -26.2947059 Eh     change       -0.4346070E-09 Eh
 * total energy  :   -26.2958074 Eh     change       -0.1101469E-02 Eh
 * total energy  :   -26.2959278 Eh     change       -0.1204485E-03 Eh
 * total energy  :   -26.2959523 Eh     change       -0.2452816E-04 Eh
 * total energy  :   -26.2959636 Eh     change       -0.1131943E-04 Eh
 * total energy  :   -26.2959671 Eh     change       -0.3442249E-05 Eh
   *** GEOMETRY OPTIMIZATION CONVERGED AFTER 6 ITERATIONS ***

 final structure:
================
19
 xtb: 6.4.1 (afa7bdf)
C        -0.91364442149174   -0.01163675634374   -0.35572278304484
C        -0.19677625335360   -1.19393058319120   -0.23510566759400
C         1.16937359200325   -1.18391932931557   -0.01824882630577
C         1.84732524504269    0.02414458632807    0.08569009672494
C         1.13788884886073    1.21596422380463   -0.02722371474063
C        -0.22520335758369    1.19077247858322   -0.24421763518225
H         1.67533343329782    2.14784196093785    0.05613005719382
H        -0.76351733361139    2.12315785468643   -0.33210731600355
O         3.19243493265168    0.09330460578122    0.29408380406389
H         3.57106418048712   -0.79617820706957    0.35736185363227
H         1.70863986849970   -2.11662929731146    0.06863370405194
H        -0.71174153471282   -2.14028823001040   -0.31519565342886
C        -2.40308065385601   -0.02905128283932   -0.55441458497752
H        -2.70500075392574    0.83677115667170   -1.14654969468741
H        -2.69210244616567   -0.93151568522337   -1.09601753054468
C        -3.12936388642679    0.00458594688551    0.79250810301467
H        -4.20618408509022   -0.00560315787609    0.64364869763790
H        -2.85176969915851   -0.85886897841266    1.39263650746997
H        -2.86159167546680    0.90341469391474    1.34307658272012

          :  Hamiltonian                  GFN2-xTB          :
         :: gradient norm              0.000505141607 Eh/a0 ::
         :: HOMO-LUMO gap              4.210814327349 eV    ::
         :: SCC energy               -26.714493558882 Eh    ::
         :: -> dispersion             -0.014362245313 Eh    ::
         :: -> Gsolv                  -0.009115761504 Eh    ::
         :: repulsion energy           0.418497313130 Eh    ::

    * Orbital Energies and Occupations

         #    Occupation            Energy/Eh            Energy/eV
      -------------------------------------------------------------
         1        2.0000           -0.7052040             -19.1896
       ...           ...                  ...                  ...
        12        2.0000           -0.5080400             -13.8245
        13        2.0000           -0.4965140             -13.5108
        14        2.0000           -0.4848296             -13.1929
        15        2.0000           -0.4784106             -13.0182
        16        2.0000           -0.4748183             -12.9205
        17        2.0000           -0.4682244             -12.7410
        18        2.0000           -0.4581546             -12.4670
        19        2.0000           -0.4431462             -12.0586
        20        2.0000           -0.4319483             -11.7539
        21        2.0000           -0.4234081             -11.5215
        22        2.0000           -0.4151724             -11.2974
        23        2.0000           -0.4006814             -10.9031
        24        2.0000           -0.3739918             -10.1768 (HOMO)
        25                         -0.2192473              -5.9660 (LUMO)
        26                         -0.2082621              -5.6671
        27                         -0.0861407              -2.3440
        28                          0.0727133               1.9786
        29                          0.1043582               2.8397
        30                          0.1340005               3.6463
        31                          0.1412542               3.8437
        32                          0.1552626               4.2249
        33                          0.1616316               4.3982
        34                          0.1837520               5.0001
        35                          0.1904687               5.1829
       ...                                ...                  ...
        46                          0.6663042              18.1311
      -------------------------------------------------------------
                  HL-Gap            0.1547445 Eh            4.2108 eV

     #   Z          covCN         q      C6AA      α(0)
     1   6 C        2.969    -0.000    28.030     8.684
     2   6 C        2.926    -0.044    29.103     8.847
     3   6 C        2.917    -0.078    29.948     8.974
     4   6 C        2.846     0.139    24.958     8.188
     5   6 C        2.918    -0.064    29.586     8.920
     6   6 C        2.926    -0.044    29.085     8.844
     7   1 H        0.926     0.042     2.419     2.432
     8   1 H        0.926     0.038     2.472     2.459
     9   8 O        1.659    -0.464    22.129     6.350
    10   1 H        0.804     0.369     0.546     1.161
    11   1 H        0.926     0.039     2.465     2.455
    12   1 H        0.926     0.038     2.471     2.458
    13   6 C        3.806    -0.064    21.717     6.634
    14   1 H        0.924     0.040     2.447     2.446
    15   1 H        0.924     0.040     2.443     2.444
    16   6 C        3.753    -0.107    22.606     6.780
    17   1 H        0.925     0.043     2.413     2.429
    18   1 H        0.925     0.038     2.477     2.461
    19   1 H        0.925     0.038     2.480     2.463

Wiberg/Mayer (AO) data.
largest (>0.10) Wiberg bond orders for each atom

     #   Z sym  total        # sym  WBO       # sym  WBO       # sym  WBO
 ---------------------------------------------------------------------------
     1   6 C    3.989 --     2 C    1.413     6 C    1.402    13 C    1.012
     2   6 C    3.991 --     3 C    1.447     1 C    1.413    12 H    0.969
                             5 C    0.108
     3   6 C    3.987 --     2 C    1.447     4 C    1.376    11 H    0.966
                             6 C    0.105
     4   6 C    3.937 --     3 C    1.376     5 C    1.364     9 O    1.067
     5   6 C    3.989 --     6 C    1.461     4 C    1.364     7 H    0.969
                             2 C    0.108
     6   6 C    3.991 --     5 C    1.461     1 C    1.402     8 H    0.969
                             3 C    0.105
     7   1 H    0.998 --     5 C    0.969
     8   1 H    0.999 --     6 C    0.969
     9   8 O    2.066 --     4 C    1.067    10 H    0.844
    10   1 H    0.864 --     9 O    0.844
    11   1 H    0.998 --     3 C    0.966
    12   1 H    0.999 --     2 C    0.969
    13   6 C    3.997 --     1 C    1.012    16 C    1.002    15 H    0.975
                            14 H    0.974
    14   1 H    0.998 --    13 C    0.974
    15   1 H    0.998 --    13 C    0.975
    16   6 C    3.995 --    13 C    1.002    18 H    0.988    19 H    0.988
                            17 H    0.986
    17   1 H    0.997 --    16 C    0.986
    18   1 H    0.999 --    16 C    0.988
    19   1 H    0.999 --    16 C    0.988
 ---------------------------------------------------------------------------

molecular dipole:
                 x           y           z       tot (Debye)
 q only:       -0.181      -0.589       0.005
   full:       -0.149      -0.741       0.018       1.923

 projected vibrational frequencies (cm⁻¹)
eigval :       -0.00    -0.00     0.00     0.00     0.00     0.00
eigval :       39.33    90.87   199.20   215.60   313.64   372.07
eigval :      384.24   400.38   404.66   452.42   527.65   613.78
eigval :      678.95   736.63   804.78   822.41   857.71   862.16
eigval :      901.42   919.70  1000.49  1031.01  1060.74  1079.18
eigval :     1102.73  1136.27  1185.46  1211.66  1233.63  1272.85
eigval :     1284.44  1320.59  1335.91  1404.22  1427.65  1483.50
eigval :     1493.60  1493.75  1504.45  1587.50  1613.32  2972.90
eigval :     2984.69  3029.63  3030.94  3039.60  3062.56  3074.55
eigval :     3079.19  3097.68  3461.66

   temp. (K)  partition function   enthalpy   heat capacity  entropy
                                   cal/mol     cal/K/mol   cal/K/mol   J/K/mol
 298.15  VIB   163.                 3709.221     27.387     21.416
         ROT  0.454E+06              888.752      2.981     28.868
         INT  0.741E+08             4597.973     30.368     50.284
         TR   0.131E+28             1481.254      4.968     40.296
         TOT                        6079.2268    35.3360    90.5805   378.9889

       T/K    H(0)-H(T)+PV         H(T)/Eh          T*S/Eh         G(T)/Eh
   ------------------------------------------------------------------------
    298.15    0.968786E-02    0.166184E+00    0.430377E-01    0.123147E+00
   ------------------------------------------------------------------------

         :::::::::::::::::::::::::::::::::::::::::::::::::::::
         ::                  THERMODYNAMIC                  ::
         :::::::::::::::::::::::::::::::::::::::::::::::::::::
         :: total free energy         -26.172820571311 Eh   ::
         ::.................................................::
         :: total energy              -26.295967089701 Eh   ::
         :: zero point energy           0.156496381288 Eh   ::
         :: G(RRHO) w/o ZPVE           -0.033349862898 Eh   ::
         :: G(RRHO) contrib.            0.123146518390 Eh   ::
         :::::::::::::::::::::::::::::::::::::::::::::::::::::

           -------------------------------------------------
          | TOTAL ENERGY              -26.295967089701 Eh   |
          | TOTAL ENTHALPY            -26.129782843828 Eh   |
          | TOTAL FREE ENERGY         -26.172820571311 Eh   |
          | GRADIENT NORM               0.000505283111 Eh/α |
          | HOMO-LUMO GAP               4.210811337229 eV   |
           -------------------------------------------------

 * finished run on 2021/11/15 at 09:36:11.750
