   * xtb version 6.4.1 (afa7bdf) compiled by 'ehlert@majestix' on 2021-06-10
          program call               : xtb 38_anisole.xyz --gfn2 --chrg 0 --uhf 0 --alpb water --ohess -P 1
          number of atoms            :                    16
          number of electrons        :                    42
          charge                     :                     0

   ID    Z sym.   atoms
    1    6 C      1-6, 10
    2    1 H      7, 8, 11-16
    3    8 O      9

        Solvent                        water
        Solvent mass                       1.8000E+01 g/mol
          :  Hamiltonian                  GFN2-xTB          :
 * total energy  :   -23.1149395 Eh     change       -0.1259579E-09 Eh
 * total energy  :   -23.1156532 Eh     change       -0.7137346E-03 Eh
 * total energy  :   -23.1156835 Eh     change       -0.3027505E-04 Eh
 * total energy  :   -23.1156870 Eh     change       -0.3444808E-05 Eh
   *** GEOMETRY OPTIMIZATION CONVERGED AFTER 4 ITERATIONS ***

 final structure:
================
16
 xtb: 6.4.1 (afa7bdf)
C        -0.02438016519627    1.06057251322357    0.00014166726434
C        -0.44905104555428   -0.26281738073834    0.00009902693332
C         0.49899672957961   -1.28676463691884   -0.00001281680271
C         1.84566423111958   -0.98848059935184   -0.00013259456942
C         2.26974761214581    0.33174948062829   -0.00012719369990
C         1.33148793031408    1.34658558017564    0.00003447296524
H         1.65004508068911    2.37804154093942    0.00006487375544
H        -0.73424244156025    1.87188649874113    0.00027681842467
O        -1.75487589210894   -0.66505941126091    0.00019801103520
C        -2.76870869650517    0.32149098531870   -0.00044439611231
H        -2.71093057698502    0.94670898253363   -0.89515543616867
H        -3.70498151857423   -0.23181031047681   -0.00069842593187
H        -2.71169832858427    0.94714493615451    0.89401176360336
H         0.14931895406205   -2.30705188692512   -0.00001973020235
H         3.32300208211176    0.56450081858537   -0.00025834857897
H         2.56838204504645   -1.78988211062839   -0.00026869191539

          :  Hamiltonian                  GFN2-xTB          :
         :: gradient norm              0.000443130859 Eh/a0 ::
         :: HOMO-LUMO gap              4.270192181721 eV    ::
         :: SCC energy               -23.480900700380 Eh    ::
         :: -> dispersion             -0.011474825944 Eh    ::
         :: -> Gsolv                  -0.003168854353 Eh    ::
         :: repulsion energy           0.365201104651 Eh    ::

    * Orbital Energies and Occupations

         #    Occupation            Energy/Eh            Energy/eV
      -------------------------------------------------------------
         1        2.0000           -0.7161681             -19.4879
       ...           ...                  ...                  ...
         9        2.0000           -0.5515006             -15.0071
        10        2.0000           -0.5349345             -14.5563
        11        2.0000           -0.5128082             -13.9542
        12        2.0000           -0.4924632             -13.4006
        13        2.0000           -0.4819269             -13.1139
        14        2.0000           -0.4813400             -13.0979
        15        2.0000           -0.4757887             -12.9469
        16        2.0000           -0.4599406             -12.5156
        17        2.0000           -0.4465506             -12.1513
        18        2.0000           -0.4335130             -11.7965
        19        2.0000           -0.4190782             -11.4037
        20        2.0000           -0.4040980             -10.9961
        21        2.0000           -0.3793590             -10.3229 (HOMO)
        22                         -0.2224319              -6.0527 (LUMO)
        23                         -0.2128703              -5.7925
        24                         -0.0877965              -2.3891
        25                          0.0271118               0.7377
        26                          0.1166110               3.1731
        27                          0.1179561               3.2097
        28                          0.1481737               4.0320
        29                          0.1624666               4.4209
        30                          0.1801126               4.9011
        31                          0.1927528               5.2451
        32                          0.2054035               5.5893
       ...                                ...                  ...
        40                          0.6743342              18.3496
      -------------------------------------------------------------
                  HL-Gap            0.1569270 Eh            4.2702 eV

     #   Z          covCN         q      C6AA      α(0)
     1   6 C        2.917    -0.071    29.773     8.948
     2   6 C        2.864     0.140    24.948     8.187
     3   6 C        2.921    -0.062    29.530     8.911
     4   6 C        2.920    -0.035    28.878     8.812
     5   6 C        2.918    -0.048    29.195     8.860
     6   6 C        2.922    -0.037    28.920     8.819
     7   1 H        0.926     0.042     2.425     2.435
     8   1 H        0.926     0.043     2.405     2.425
     9   8 O        1.704    -0.308    19.133     5.906
    10   6 C        3.641     0.023    20.535     6.516
    11   1 H        0.924     0.053     2.287     2.365
    12   1 H        0.925     0.078     1.996     2.209
    13   1 H        0.924     0.053     2.287     2.365
    14   1 H        0.926     0.046     2.371     2.408
    15   1 H        0.926     0.040     2.453     2.449
    16   1 H        0.926     0.043     2.404     2.425

Wiberg/Mayer (AO) data.
largest (>0.10) Wiberg bond orders for each atom

     #   Z sym  total        # sym  WBO       # sym  WBO       # sym  WBO
 ---------------------------------------------------------------------------
     1   6 C    3.987 --     6 C    1.435     2 C    1.380     8 H    0.966
                             4 C    0.105
     2   6 C    3.932 --     1 C    1.380     3 C    1.352     9 O    1.052
     3   6 C    3.988 --     4 C    1.469     2 C    1.352    14 H    0.969
                             6 C    0.111
     4   6 C    3.991 --     3 C    1.469     5 C    1.419    16 H    0.970
                             1 C    0.105
     5   6 C    3.991 --     6 C    1.448     4 C    1.419    15 H    0.971
     6   6 C    3.992 --     5 C    1.448     1 C    1.435     7 H    0.971
                             3 C    0.111
     7   1 H    0.998 --     6 C    0.971
     8   1 H    0.998 --     1 C    0.966
     9   8 O    2.203 --     2 C    1.052    10 C    0.972
    10   6 C    3.933 --    12 H    0.978    11 H    0.977    13 H    0.977
                             9 O    0.972
    11   1 H    0.997 --    10 C    0.977
    12   1 H    0.993 --    10 C    0.978
    13   1 H    0.997 --    10 C    0.977
    14   1 H    0.998 --     3 C    0.969
    15   1 H    0.998 --     5 C    0.971
    16   1 H    0.998 --     4 C    0.970
 ---------------------------------------------------------------------------

molecular dipole:
                 x           y           z       tot (Debye)
 q only:       -0.242       0.471      -0.000
   full:       -0.291       0.574      -0.000       1.634

 projected vibrational frequencies (cm⁻¹)
eigval :       -0.00    -0.00    -0.00     0.00     0.00     0.00
eigval :       93.56   198.45   244.17   254.61   381.04   422.06
eigval :      482.90   529.02   587.61   657.08   755.15   786.49
eigval :      860.67   880.15   919.20   923.84   975.17  1044.37
eigval :     1080.00  1111.45  1115.37  1150.91  1175.41  1186.37
eigval :     1230.64  1279.08  1329.33  1388.88  1437.62  1460.23
eigval :     1467.40  1473.83  1587.42  1600.82  2944.61  2957.09
eigval :     3035.08  3079.66  3083.69  3096.14  3103.96  3109.66

   temp. (K)  partition function   enthalpy   heat capacity  entropy
                                   cal/mol     cal/K/mol   cal/K/mol   J/K/mol
 298.15  VIB   19.4                 2706.207     21.418     14.923
         ROT  0.279E+06              888.752      2.981     27.897
         INT  0.541E+07             3594.959     24.398     42.820
         TR   0.109E+28             1481.254      4.968     39.933
         TOT                        5076.2133    29.3666    82.7532   346.2395

       T/K    H(0)-H(T)+PV         H(T)/Eh          T*S/Eh         G(T)/Eh
   ------------------------------------------------------------------------
    298.15    0.808946E-02    0.136761E+00    0.393187E-01    0.974420E-01
   ------------------------------------------------------------------------

         :::::::::::::::::::::::::::::::::::::::::::::::::::::
         ::                  THERMODYNAMIC                  ::
         :::::::::::::::::::::::::::::::::::::::::::::::::::::
         :: total free energy         -23.018244917396 Eh   ::
         ::.................................................::
         :: total energy              -23.115686961931 Eh   ::
         :: zero point energy           0.128671315722 Eh   ::
         :: G(RRHO) w/o ZPVE           -0.031229271187 Eh   ::
         :: G(RRHO) contrib.            0.097442044535 Eh   ::
         :::::::::::::::::::::::::::::::::::::::::::::::::::::

           -------------------------------------------------
          | TOTAL ENERGY              -23.115686961931 Eh   |
          | TOTAL ENTHALPY            -22.978926185450 Eh   |
          | TOTAL FREE ENERGY         -23.018244917396 Eh   |
          | GRADIENT NORM               0.000443427135 Eh/α |
          | HOMO-LUMO GAP               4.270201451745 eV   |
           -------------------------------------------------

 * finished run on 2021/11/15 at 09:36:23.902
