   * xtb version 6.4.1 (afa7bdf) compiled by 'ehlert@majestix' on 2021-06-10
          program call               : xtb 05_3-methoxyphenol.xyz --gfn2 --chrg 0 --uhf 0 --alpb water --ohess -P 1
          number of atoms            :                    17
          number of electrons        :                    48
          charge                     :                     0

   ID    Z sym.   atoms
    1    6 C      1-6, 14
    2    1 H      7, 8, 10-12, 15-17
    3    8 O      9, 13

        Solvent                        water
        Solvent mass                       1.8000E+01 g/mol
          :  Hamiltonian                  GFN2-xTB          :
 * total energy  :   -27.1953083 Eh     change       -0.1672014E-09 Eh
 * total energy  :   -27.1960812 Eh     change       -0.7729526E-03 Eh
 * total energy  :   -27.1961671 Eh     change       -0.8581025E-04 Eh
 * total energy  :   -27.1961808 Eh     change       -0.1378493E-04 Eh
 * total energy  :   -27.1961837 Eh     change       -0.2821779E-05 Eh
   *** GEOMETRY OPTIMIZATION CONVERGED AFTER 5 ITERATIONS ***

 final structure:
================
17
 xtb: 6.4.1 (afa7bdf)
C        -0.67973475866255    1.19009566577369   -0.00001648301152
C        -0.76002807070167   -0.19672021086376    0.00006662084755
C         0.40802668811886   -0.95763808247256    0.00011168384430
C         1.64782902134632   -0.33992262197821    0.00006105058038
C         1.72731689538262    1.05204522294026   -0.00000744450312
C         0.56705088141442    1.79689266282871   -0.00003950033099
H         2.69910053470520    1.51816469212908   -0.00004144183323
H         0.62730447091873    2.87418899382741   -0.00009591391708
O         2.80691546820764   -1.04769138382828    0.00006518177450
H         2.62651440038856   -2.00006197878415    0.00017736767437
H        -1.56661941336019    1.80163235019444   -0.00005535735908
H         0.31415109022527   -2.03307254651192    0.00018080655540
O        -1.92111974439619   -0.91536951182628    0.00012135939129
C        -3.15090140543059   -0.21609669039005   -0.00024901528128
H        -3.25270207626384    0.40386383236883   -0.89473631579066
H        -3.91776182318580   -0.98743170389808   -0.00019797932406
H        -3.25302715870677    0.40429031049088    0.89390438068323

          :  Hamiltonian                  GFN2-xTB          :
         :: gradient norm              0.000756580446 Eh/a0 ::
         :: HOMO-LUMO gap              4.268485794644 eV    ::
         :: SCC energy               -27.567928572977 Eh    ::
         :: -> dispersion             -0.012604584411 Eh    ::
         :: -> Gsolv                  -0.010982070780 Eh    ::
         :: repulsion energy           0.371733280668 Eh    ::

    * Orbital Energies and Occupations

         #    Occupation            Energy/Eh            Energy/eV
      -------------------------------------------------------------
         1        2.0000           -0.7168081             -19.5053
       ...           ...                  ...                  ...
        12        2.0000           -0.5251550             -14.2902
        13        2.0000           -0.5193566             -14.1324
        14        2.0000           -0.5139548             -13.9854
        15        2.0000           -0.5115053             -13.9188
        16        2.0000           -0.4810323             -13.0896
        17        2.0000           -0.4736832             -12.8896
        18        2.0000           -0.4703483             -12.7988
        19        2.0000           -0.4634549             -12.6112
        20        2.0000           -0.4385972             -11.9348
        21        2.0000           -0.4381055             -11.9215
        22        2.0000           -0.4262418             -11.5986
        23        2.0000           -0.3892447             -10.5919
        24        2.0000           -0.3759403             -10.2299 (HOMO)
        25                         -0.2190761              -5.9614 (LUMO)
        26                         -0.2079764              -5.6593
        27                         -0.0850941              -2.3155
        28                          0.0236225               0.6428
        29                          0.0824280               2.2430
        30                          0.1172945               3.1917
        31                          0.1222537               3.3267
        32                          0.1473539               4.0097
        33                          0.1734198               4.7190
        34                          0.1917009               5.2164
        35                          0.1996060               5.4316
       ...                                ...                  ...
        44                          0.6757444              18.3879
      -------------------------------------------------------------
                  HL-Gap            0.1568642 Eh            4.2685 eV

     #   Z          covCN         q      C6AA      α(0)
     1   6 C        2.916    -0.085    30.125     9.000
     2   6 C        2.864     0.139    24.960     8.189
     3   6 C        2.920    -0.105    30.651     9.079
     4   6 C        2.846     0.146    24.819     8.165
     5   6 C        2.918    -0.075    29.872     8.963
     6   6 C        2.922    -0.039    28.966     8.826
     7   1 H        0.926     0.050     2.324     2.384
     8   1 H        0.926     0.048     2.349     2.397
     9   8 O        1.659    -0.454    21.916     6.320
    10   1 H        0.804     0.374     0.535     1.149
    11   1 H        0.926     0.045     2.379     2.412
    12   1 H        0.926     0.052     2.300     2.372
    13   8 O        1.705    -0.304    19.066     5.895
    14   6 C        3.641     0.022    20.564     6.520
    15   1 H        0.924     0.053     2.278     2.360
    16   1 H        0.925     0.080     1.983     2.202
    17   1 H        0.924     0.053     2.278     2.360

Wiberg/Mayer (AO) data.
largest (>0.10) Wiberg bond orders for each atom

     #   Z sym  total        # sym  WBO       # sym  WBO       # sym  WBO
 ---------------------------------------------------------------------------
     1   6 C    3.983 --     6 C    1.424     2 C    1.377    11 H    0.966
     2   6 C    3.934 --     1 C    1.377     3 C    1.357    13 O    1.055
     3   6 C    3.977 --     4 C    1.398     2 C    1.357    12 H    0.964
                             6 C    0.102
     4   6 C    3.941 --     3 C    1.398     5 C    1.344     9 O    1.079
     5   6 C    3.985 --     6 C    1.465     4 C    1.344     7 H    0.969
     6   6 C    3.991 --     5 C    1.465     1 C    1.424     8 H    0.970
                             3 C    0.102
     7   1 H    0.997 --     5 C    0.969
     8   1 H    0.998 --     6 C    0.970
     9   8 O    2.080 --     4 C    1.079    10 H    0.840
    10   1 H    0.860 --     9 O    0.840
    11   1 H    0.998 --     1 C    0.966
    12   1 H    0.997 --     3 C    0.964
    13   8 O    2.206 --     2 C    1.055    14 C    0.972
    14   6 C    3.932 --    16 H    0.978    15 H    0.977    17 H    0.977
                            13 O    0.972
    15   1 H    0.997 --    14 C    0.977
    16   1 H    0.993 --    14 C    0.978
    17   1 H    0.997 --    14 C    0.977
 ---------------------------------------------------------------------------

molecular dipole:
                 x           y           z       tot (Debye)
 q only:       -0.617      -0.135      -0.000
   full:       -0.769      -0.175      -0.000       2.005

 projected vibrational frequencies (cm⁻¹)
eigval :       -0.00    -0.00    -0.00     0.00     0.00     0.00
eigval :       86.90   194.76   223.72   229.54   254.67   352.46
eigval :      395.78   430.53   441.23   497.71   555.13   588.28
eigval :      652.74   731.67   781.07   850.06   861.40   916.49
eigval :      937.83   984.91  1054.68  1102.99  1115.10  1118.29
eigval :     1146.26  1149.37  1193.67  1266.21  1284.00  1341.76
eigval :     1389.22  1443.42  1458.83  1472.36  1474.38  1586.67
eigval :     1601.12  2944.46  2957.05  3033.80  3088.86  3090.71
eigval :     3110.27  3116.81  3454.73

   temp. (K)  partition function   enthalpy   heat capacity  entropy
                                   cal/mol     cal/K/mol   cal/K/mol   J/K/mol
 298.15  VIB   43.9                 3429.701     26.093     18.947
         ROT  0.458E+06              888.752      2.981     28.885
         INT  0.201E+08             4318.453     29.074     47.832
         TR   0.134E+28             1481.254      4.968     40.344
         TOT                        5799.7069    34.0418    88.1760   368.9286

       T/K    H(0)-H(T)+PV         H(T)/Eh          T*S/Eh         G(T)/Eh
   ------------------------------------------------------------------------
    298.15    0.924242E-02    0.141289E+00    0.418953E-01    0.993942E-01
   ------------------------------------------------------------------------

         :::::::::::::::::::::::::::::::::::::::::::::::::::::
         ::                  THERMODYNAMIC                  ::
         :::::::::::::::::::::::::::::::::::::::::::::::::::::
         :: total free energy         -27.096789501493 Eh   ::
         ::.................................................::
         :: total energy              -27.196183667795 Eh   ::
         :: zero point energy           0.132047030016 Eh   ::
         :: G(RRHO) w/o ZPVE           -0.032652863714 Eh   ::
         :: G(RRHO) contrib.            0.099394166302 Eh   ::
         :::::::::::::::::::::::::::::::::::::::::::::::::::::

           -------------------------------------------------
          | TOTAL ENERGY              -27.196183667795 Eh   |
          | TOTAL ENTHALPY            -27.054894216591 Eh   |
          | TOTAL FREE ENERGY         -27.096789501493 Eh   |
          | GRADIENT NORM               0.000755871328 Eh/α |
          | HOMO-LUMO GAP               4.268493456796 eV   |
           -------------------------------------------------

 * finished run on 2021/11/15 at 09:36:11.236
