   * xtb version 6.4.1 (afa7bdf) compiled by 'ehlert@majestix' on 2021-06-10
          program call               : xtb 01_2,6-dimethoxyphenol.xyz --gfn2 --chrg 0 --uhf 0 --alpb water --ohess -P 1
          number of atoms            :                    21
          number of electrons        :                    60
          charge                     :                     0

   ID    Z sym.   atoms
    1    6 C      1-6, 12, 18
    2    8 O      7, 11, 17
    3    1 H      8-10, 13-16, 19-21

        Solvent                        water
        Solvent mass                       1.8000E+01 g/mol
          :  Hamiltonian                  GFN2-xTB          :
 * total energy  :   -34.4223706 Eh     change       -0.1986891E-09 Eh
 * total energy  :   -34.4231201 Eh     change       -0.7495544E-03 Eh
 * total energy  :   -34.4231818 Eh     change       -0.6163681E-04 Eh
 * total energy  :   -34.4231897 Eh     change       -0.7938712E-05 Eh
 * total energy  :   -34.4231920 Eh     change       -0.2341486E-05 Eh
   *** GEOMETRY OPTIMIZATION CONVERGED AFTER 5 ITERATIONS ***

 final structure:
================
21
 xtb: 6.4.1 (afa7bdf)
C        -0.03025329611210    2.08841661395863    0.00000000000000
C         1.18331977426475    1.42515081006617    0.00000000000003
C         1.19933063570620    0.03829252749027    0.00000000000001
C        -0.00145814790913   -0.67882910768323   -0.00000000000002
C        -1.22387126658447    0.00347044481695   -0.00000000000007
C        -1.22586945085017    1.39322992538301   -0.00000000000005
O        -0.00129536584242   -2.04400790189321   -0.00000000000002
H         0.92099234716972   -2.34971446658899    0.00000000000004
H         2.10109769757519    1.98843042367468    0.00000000000004
H        -0.04479489567522    3.16648109238566    0.00000000000004
O         2.33037392754360   -0.74667730691704   -0.00000000000000
C         3.59008383862373   -0.10574091064031    0.00000000000000
H         3.71954623953348    0.50872145885491    0.89434804062057
H         4.32006022327405   -0.91206231777514   -0.00000000000003
H         3.71954623953347    0.50872145885493   -0.89434804062055
H        -2.15478131731111    1.93784088500503   -0.00000000000004
O        -2.33912114385035   -0.78715996934929   -0.00000000000003
C        -3.60507175805361   -0.15737929153060    0.00000000000000
H        -4.32605343101316   -0.97161026377270    0.00000000000010
H        -3.74223092501117    0.45578594783016    0.89474873687188
H        -3.74223092501126    0.45578594783010   -0.89474873687190

          :  Hamiltonian                  GFN2-xTB          :
         :: gradient norm              0.000645008088 Eh/a0 ::
         :: HOMO-LUMO gap              4.127084907887 eV    ::
         :: SCC energy               -34.840058127150 Eh    ::
         :: -> dispersion             -0.016549349741 Eh    ::
         :: -> Gsolv                  -0.013217139947 Eh    ::
         :: repulsion energy           0.416856205019 Eh    ::

    * Orbital Energies and Occupations

         #    Occupation            Energy/Eh            Energy/eV
      -------------------------------------------------------------
         1        2.0000           -0.7223128             -19.6551
       ...           ...                  ...                  ...
        18        2.0000           -0.5158959             -14.0382
        19        2.0000           -0.5127457             -13.9525
        20        2.0000           -0.4961042             -13.4997
        21        2.0000           -0.4764304             -12.9643
        22        2.0000           -0.4708506             -12.8125
        23        2.0000           -0.4685148             -12.7489
        24        2.0000           -0.4620098             -12.5719
        25        2.0000           -0.4584203             -12.4743
        26        2.0000           -0.4386948             -11.9375
        27        2.0000           -0.4358640             -11.8605
        28        2.0000           -0.4322906             -11.7632
        29        2.0000           -0.3802232             -10.3464
        30        2.0000           -0.3664458              -9.9715 (HOMO)
        31                         -0.2147781              -5.8444 (LUMO)
        32                         -0.2115652              -5.7570
        33                         -0.0859218              -2.3381
        34                         -0.0048417              -0.1317
        35                          0.0463631               1.2616
        36                          0.0778396               2.1181
        37                          0.1076567               2.9295
        38                          0.1224787               3.3328
        39                          0.1272254               3.4620
        40                          0.1339319               3.6445
        41                          0.1709496               4.6518
       ...                                ...                  ...
        54                          0.6590350              17.9333
      -------------------------------------------------------------
                  HL-Gap            0.1516677 Eh            4.1271 eV

     #   Z          covCN         q      C6AA      α(0)
     1   6 C        2.921    -0.053    29.325     8.880
     2   6 C        2.915    -0.085    30.123     9.000
     3   6 C        2.862     0.101    25.750     8.318
     4   6 C        2.846     0.097    25.839     8.331
     5   6 C        2.862     0.116    25.438     8.267
     6   6 C        2.917    -0.086    30.158     9.005
     7   8 O        1.658    -0.447    21.780     6.300
     8   1 H        0.804     0.374     0.535     1.149
     9   1 H        0.926     0.055     2.257     2.349
    10   1 H        0.926     0.054     2.276     2.359
    11   8 O        1.704    -0.309    19.158     5.910
    12   6 C        3.641     0.021    20.580     6.523
    13   1 H        0.924     0.055     2.258     2.350
    14   1 H        0.925     0.082     1.963     2.191
    15   1 H        0.924     0.055     2.258     2.350
    16   1 H        0.926     0.055     2.260     2.351
    17   8 O        1.704    -0.297    18.937     5.875
    18   6 C        3.642     0.021    20.572     6.521
    19   1 H        0.925     0.081     1.966     2.193
    20   1 H        0.924     0.055     2.257     2.349
    21   1 H        0.924     0.055     2.257     2.349

Wiberg/Mayer (AO) data.
largest (>0.10) Wiberg bond orders for each atom

     #   Z sym  total        # sym  WBO       # sym  WBO       # sym  WBO
 ---------------------------------------------------------------------------
     1   6 C    3.990 --     6 C    1.436     2 C    1.432    10 H    0.970
     2   6 C    3.983 --     1 C    1.432     3 C    1.377     9 H    0.964
     3   6 C    3.931 --     2 C    1.377     4 C    1.322    11 O    1.034
     4   6 C    3.940 --     3 C    1.322     5 C    1.315     7 O    1.069
     5   6 C    3.934 --     6 C    1.371     4 C    1.315    17 O    1.053
     6   6 C    3.982 --     1 C    1.436     5 C    1.371    16 H    0.964
     7   8 O    2.075 --     4 C    1.069     8 H    0.837
     8   1 H    0.860 --     7 O    0.837
     9   1 H    0.997 --     2 C    0.964
    10   1 H    0.997 --     1 C    0.970
    11   8 O    2.189 --     3 C    1.034    12 C    0.970
    12   6 C    3.929 --    13 H    0.977    15 H    0.977    14 H    0.977
                            11 O    0.970
    13   1 H    0.997 --    12 C    0.977
    14   1 H    0.993 --    12 C    0.977
    15   1 H    0.997 --    12 C    0.977
    16   1 H    0.997 --     6 C    0.964
    17   8 O    2.207 --     5 C    1.053    18 C    0.972
    18   6 C    3.930 --    19 H    0.977    21 H    0.976    20 H    0.976
                            17 O    0.972
    19   1 H    0.993 --    18 C    0.977
    20   1 H    0.997 --    18 C    0.976
    21   1 H    0.997 --    18 C    0.976
 ---------------------------------------------------------------------------

molecular dipole:
                 x           y           z       tot (Debye)
 q only:        0.562       0.789      -0.000
   full:        0.726       0.971      -0.000       3.081

 projected vibrational frequencies (cm⁻¹)
eigval :       -0.00    -0.00    -0.00     0.00     0.00     0.00
eigval :       54.49    91.38   148.18   181.63   183.31   231.16
eigval :      232.58   270.08   321.84   327.69   353.70   379.27
eigval :      467.58   503.95   511.65   565.11   595.08   656.88
eigval :      715.23   782.96   812.32   851.93   894.54   897.33
eigval :     1039.13  1082.59  1113.00  1114.31  1116.70  1138.07
eigval :     1145.04  1154.10  1182.79  1203.23  1242.75  1309.27
eigval :     1354.25  1387.60  1391.95  1456.00  1458.60  1458.64
eigval :     1469.59  1471.57  1479.57  1575.90  1589.79  2939.18
eigval :     2950.07  2952.17  2962.43  3034.18  3035.18  3098.09
eigval :     3119.31  3124.91  3420.69

   temp. (K)  partition function   enthalpy   heat capacity  entropy
                                   cal/mol     cal/K/mol   cal/K/mol   J/K/mol
 298.15  VIB   921.                 5188.336     35.620     30.415
         ROT  0.866E+06              888.752      2.981     30.149
         INT  0.798E+09             6077.089     38.601     60.565
         TR   0.185E+28             1481.254      4.968     40.990
         TOT                        7558.3425    43.5688   101.5542   424.9028

       T/K    H(0)-H(T)+PV         H(T)/Eh          T*S/Eh         G(T)/Eh
   ------------------------------------------------------------------------
    298.15    0.120450E-01    0.175163E+00    0.482517E-01    0.126911E+00
   ------------------------------------------------------------------------

         :::::::::::::::::::::::::::::::::::::::::::::::::::::
         ::                  THERMODYNAMIC                  ::
         :::::::::::::::::::::::::::::::::::::::::::::::::::::
         :: total free energy         -34.296280796577 Eh   ::
         ::.................................................::
         :: total energy              -34.423192040289 Eh   ::
         :: zero point energy           0.163117937254 Eh   ::
         :: G(RRHO) w/o ZPVE           -0.036206693542 Eh   ::
         :: G(RRHO) contrib.            0.126911243712 Eh   ::
         :::::::::::::::::::::::::::::::::::::::::::::::::::::

           -------------------------------------------------
          | TOTAL ENERGY              -34.423192040289 Eh   |
          | TOTAL ENTHALPY            -34.248029117526 Eh   |
          | TOTAL FREE ENERGY         -34.296280796577 Eh   |
          | GRADIENT NORM               0.000644678868 Eh/α |
          | HOMO-LUMO GAP               4.127087936874 eV   |
           -------------------------------------------------

 * finished run on 2021/11/15 at 09:36:10.669
