   * xtb version 6.4.1 (afa7bdf) compiled by 'ehlert@majestix' on 2021-06-10
          program call               : xtb 14_2,4-dinitrophenol.xyz --gfn2 --chrg 0 --uhf 0 --alpb water --ohess -P 1
          number of atoms            :                    17
          number of electrons        :                    68
          charge                     :                     0

   ID    Z sym.   atoms
    1    6 C      1-6
    2    1 H      7, 8, 10, 14
    3    8 O      9, 12, 13, 16, 17
    4    7 N      11, 15

        Solvent                        water
        Solvent mass                       1.8000E+01 g/mol
          :  Hamiltonian                  GFN2-xTB          :
 * total energy  :   -40.8892028 Eh     change       -0.1109399E-08 Eh
 * total energy  :   -40.8912030 Eh     change       -0.2000134E-02 Eh
 * total energy  :   -40.8917239 Eh     change       -0.5208737E-03 Eh
 * total energy  :   -40.8917990 Eh     change       -0.7515464E-04 Eh
 * total energy  :   -40.8918410 Eh     change       -0.4201763E-04 Eh
 * total energy  :   -40.8918434 Eh     change       -0.2393391E-05 Eh
 * total energy  :   -40.8918519 Eh     change       -0.8485142E-05 Eh
 * total energy  :   -40.8918530 Eh     change       -0.1119431E-05 Eh
   *** GEOMETRY OPTIMIZATION CONVERGED AFTER 8 ITERATIONS ***

 final structure:
================
17
 xtb: 6.4.1 (afa7bdf)
C         1.39372566393007    0.13986789724238   -0.00003451584154
C         0.30355703928805   -0.70747224837084   -0.00004414403878
C        -0.98543427917238   -0.17899190437161   -0.00015471575011
C        -1.19053169493331    1.22713982097134    0.00004434551807
C        -0.04806743101327    2.05561236752780    0.00014515559018
C         1.21578007140182    1.53308535368576    0.00011599339563
H        -0.21489915357963    3.12024587257413    0.00021744021489
H         2.08752746250679    2.16880826666755    0.00015633173240
O        -2.36097369374655    1.81437241315456    0.00005267065419
H        -3.10720919777700    1.16674227242587    0.00002841449342
N         2.71044802097458   -0.40551519031624   -0.00035886306238
O         2.83451271257560   -1.61842515472618    0.00046006590321
O         3.65230380616587    0.36771829503116    0.00018857689642
H         0.44105313122229   -1.77954244202820   -0.00017444551690
N        -2.07251627459109   -1.09095817948802   -0.00068411400521
O        -3.21297656459277   -0.63431369863149    0.00018318576340
O        -1.84212761865908   -2.28404474134795    0.00010161805312

          :  Hamiltonian                  GFN2-xTB          :
         :: gradient norm              0.000530918304 Eh/a0 ::
         :: HOMO-LUMO gap              2.530491020208 eV    ::
         :: SCC energy               -41.264382326289 Eh    ::
         :: -> dispersion             -0.015878955485 Eh    ::
         :: -> Gsolv                  -0.024418428520 Eh    ::
         :: repulsion energy           0.372492449798 Eh    ::

    * Orbital Energies and Occupations

         #    Occupation            Energy/Eh            Energy/eV
      -------------------------------------------------------------
         1        2.0000           -0.7961119             -21.6633
       ...           ...                  ...                  ...
        22        2.0000           -0.5282770             -14.3751
        23        2.0000           -0.5211131             -14.1802
        24        2.0000           -0.5168707             -14.0648
        25        2.0000           -0.5100879             -13.8802
        26        2.0000           -0.4972933             -13.5320
        27        2.0000           -0.4885517             -13.2942
        28        2.0000           -0.4870368             -13.2529
        29        2.0000           -0.4748762             -12.9220
        30        2.0000           -0.4668656             -12.7041
        31        2.0000           -0.4652768             -12.6608
        32        2.0000           -0.4577741             -12.4567
        33        2.0000           -0.4566100             -12.4250
        34        2.0000           -0.4378014             -11.9132 (HOMO)
        35                         -0.3448078              -9.3827 (LUMO)
        36                         -0.3362684              -9.1503
        37                         -0.2609816              -7.1017
        38                         -0.2428102              -6.6072
        39                         -0.1338837              -3.6432
        40                         -0.0354241              -0.9639
        41                          0.0008822               0.0240
        42                          0.0657315               1.7886
        43                          0.1015907               2.7644
        44                          0.1352633               3.6807
        45                          0.1402459               3.8163
       ...                                ...                  ...
        56                          0.6184483              16.8288
      -------------------------------------------------------------
                  HL-Gap            0.0929937 Eh            2.5305 eV

     #   Z          covCN         q      C6AA      α(0)
     1   6 C        2.914     0.012    27.748     8.638
     2   6 C        2.918    -0.008    28.221     8.711
     3   6 C        2.908    -0.019    28.474     8.750
     4   6 C        2.837     0.199    23.767     7.989
     5   6 C        2.918    -0.047    29.178     8.858
     6   6 C        2.914    -0.008    28.231     8.713
     7   1 H        0.926     0.130     1.538     1.939
     8   1 H        0.926     0.126     1.568     1.958
     9   8 O        1.659    -0.343    19.779     6.004
    10   1 H        0.802     0.411     0.465     1.071
    11   7 N        2.761     0.580    13.162     5.388
    12   8 O        0.930    -0.438    22.424     6.351
    13   8 O        0.930    -0.430    22.254     6.327
    14   1 H        0.926     0.125     1.570     1.959
    15   7 N        2.761     0.580    13.158     5.387
    16   8 O        0.930    -0.443    22.526     6.365
    17   8 O        0.930    -0.426    22.176     6.316

Wiberg/Mayer (AO) data.
largest (>0.10) Wiberg bond orders for each atom

     #   Z sym  total        # sym  WBO       # sym  WBO       # sym  WBO
 ---------------------------------------------------------------------------
     1   6 C    3.956 --     2 C    1.420     6 C    1.292    11 N    0.994
     2   6 C    3.974 --     1 C    1.420     3 C    1.371    14 H    0.947
     3   6 C    3.948 --     2 C    1.371     4 C    1.246    15 N    1.023
     4   6 C    3.948 --     5 C    1.281     9 O    1.246     3 C    1.246
     5   6 C    3.976 --     6 C    1.543     4 C    1.281     7 H    0.952
     6   6 C    3.972 --     5 C    1.543     1 C    1.292     8 H    0.952
     7   1 H    0.982 --     5 C    0.952
     8   1 H    0.984 --     6 C    0.952
     9   8 O    2.246 --     4 C    1.246    10 H    0.767
    10   1 H    0.831 --     9 O    0.767
    11   7 N    3.907 --    13 O    1.433    12 O    1.431     1 C    0.994
    12   8 O    1.891 --    11 N    1.431    13 O    0.332
    13   8 O    1.892 --    11 N    1.433    12 O    0.332
    14   1 H    0.984 --     2 C    0.947
    15   7 N    3.913 --    17 O    1.445    16 O    1.388     3 C    1.023
    16   8 O    1.899 --    15 N    1.388    17 O    0.315
    17   8 O    1.918 --    15 N    1.445    16 O    0.315
 ---------------------------------------------------------------------------

molecular dipole:
                 x           y           z       tot (Debye)
 q only:       -1.180       2.632      -0.002
   full:       -1.217       2.361      -0.002       6.751

 projected vibrational frequencies (cm⁻¹)
eigval :       -0.00    -0.00     0.00     0.00     0.00     0.00
eigval :       35.35    58.92   107.96   142.31   158.76   286.99
eigval :      296.72   338.35   362.87   401.58   416.46   490.37
eigval :      524.89   584.72   620.21   653.85   695.79   704.40
eigval :      730.00   751.17   791.85   825.05   854.55   895.64
eigval :      926.42   932.89  1066.35  1085.40  1133.43  1169.80
eigval :     1216.40  1252.20  1283.00  1332.85  1363.37  1412.99
eigval :     1456.71  1531.85  1557.22  1572.81  1583.93  3091.95
eigval :     3093.43  3107.74  3126.41

   temp. (K)  partition function   enthalpy   heat capacity  entropy
                                   cal/mol     cal/K/mol   cal/K/mol   J/K/mol
 298.15  VIB  0.153E+04             4850.940     33.291     29.144
         ROT  0.145E+07              888.752      2.981     31.179
         INT  0.223E+10             5739.692     36.272     60.324
         TR   0.242E+28             1481.254      4.968     41.518
         TOT                        7220.9460    41.2402   101.8421   426.1073

       T/K    H(0)-H(T)+PV         H(T)/Eh          T*S/Eh         G(T)/Eh
   ------------------------------------------------------------------------
    298.15    0.115073E-01    0.116362E+00    0.483885E-01    0.679736E-01
   ------------------------------------------------------------------------

         :::::::::::::::::::::::::::::::::::::::::::::::::::::
         ::                  THERMODYNAMIC                  ::
         :::::::::::::::::::::::::::::::::::::::::::::::::::::
         :: total free energy         -40.823879393412 Eh   ::
         ::.................................................::
         :: total energy              -40.891853026735 Eh   ::
         :: zero point energy           0.104854788824 Eh   ::
         :: G(RRHO) w/o ZPVE           -0.036881155500 Eh   ::
         :: G(RRHO) contrib.            0.067973633323 Eh   ::
         :::::::::::::::::::::::::::::::::::::::::::::::::::::

           -------------------------------------------------
          | TOTAL ENERGY              -40.891853026735 Eh   |
          | TOTAL ENTHALPY            -40.775490927915 Eh   |
          | TOTAL FREE ENERGY         -40.823879393412 Eh   |
          | GRADIENT NORM               0.000531179101 Eh/α |
          | HOMO-LUMO GAP               2.530486608294 eV   |
           -------------------------------------------------

 * finished run on 2021/11/15 at 09:36:14.652
