   * xtb version 6.4.1 (afa7bdf) compiled by 'ehlert@majestix' on 2021-06-10
          program call               : xtb 03_2-methoxyphenol.xyz --gfn2 --chrg 0 --uhf 0 --alpb water --ohess -P 1
          number of atoms            :                    17
          number of electrons        :                    48
          charge                     :                     0

   ID    Z sym.   atoms
    1    6 C      1-6, 14
    2    1 H      7, 8, 10-12, 15-17
    3    8 O      9, 13

        Solvent                        water
        Solvent mass                       1.8000E+01 g/mol
          :  Hamiltonian                  GFN2-xTB          :
 * total energy  :   -27.1936614 Eh     change       -0.2218741E-09 Eh
 * total energy  :   -27.1943691 Eh     change       -0.7077293E-03 Eh
 * total energy  :   -27.1944293 Eh     change       -0.6020633E-04 Eh
 * total energy  :   -27.1944418 Eh     change       -0.1242909E-04 Eh
 * total energy  :   -27.1944460 Eh     change       -0.4202729E-05 Eh
   *** GEOMETRY OPTIMIZATION CONVERGED AFTER 5 ITERATIONS ***

 final structure:
================
17
 xtb: 6.4.1 (afa7bdf)
C        -1.37196554964213   -1.64579926489417   -0.00000003783570
C        -0.00901517610312   -1.38292211330465   -0.00003059821604
C         0.44343890535368   -0.07544962489788   -0.00006928998021
C        -0.48315722331998    0.98139494163364   -0.00007362289696
C        -1.83946297551610    0.70402374481381   -0.00004833014567
C        -2.28352059291560   -0.60865622518580   -0.00001334058919
H        -2.52999446335430    1.53207824681510   -0.00005582265353
H        -3.34233505429329   -0.81298433891998    0.00000961376408
O        -0.06088406838554    2.27546565049440   -0.00010376521219
H         0.91013808917169    2.29042763758333   -0.00010603326203
H         0.68841415619175   -2.20483305187007   -0.00002535281758
H        -1.71147159225863   -2.66956669594507    0.00003557196802
O         1.76416472072524    0.31594066158912   -0.00010523460791
C         2.76070304430203   -0.68473847156422   -0.00008473258397
H         2.69240396468086   -1.30952100090363   -0.89431653176290
H         3.70621474671581   -0.14702868367722   -0.00005000982831
H         2.69235006864765   -1.30954141176673    0.89412651666009

          :  Hamiltonian                  GFN2-xTB          :
         :: gradient norm              0.000997612366 Eh/a0 ::
         :: HOMO-LUMO gap              4.159775325219 eV    ::
         :: SCC energy               -27.565023158228 Eh    ::
         :: -> dispersion             -0.012777440007 Eh    ::
         :: -> Gsolv                  -0.009184942249 Eh    ::
         :: repulsion energy           0.370546164640 Eh    ::

    * Orbital Energies and Occupations

         #    Occupation            Energy/Eh            Energy/eV
      -------------------------------------------------------------
         1        2.0000           -0.7225925             -19.6627
       ...           ...                  ...                  ...
        12        2.0000           -0.5313677             -14.4593
        13        2.0000           -0.5220205             -14.2049
        14        2.0000           -0.5165407             -14.0558
        15        2.0000           -0.4981671             -13.5558
        16        2.0000           -0.4884290             -13.2908
        17        2.0000           -0.4745034             -12.9119
        18        2.0000           -0.4685231             -12.7492
        19        2.0000           -0.4648622             -12.6495
        20        2.0000           -0.4468380             -12.1591
        21        2.0000           -0.4365473             -11.8791
        22        2.0000           -0.4256943             -11.5837
        23        2.0000           -0.3953948             -10.7592
        24        2.0000           -0.3710492             -10.0968 (HOMO)
        25                         -0.2181803              -5.9370 (LUMO)
        26                         -0.2120678              -5.7707
        27                         -0.0863623              -2.3500
        28                          0.0091626               0.2493
        29                          0.0837652               2.2794
        30                          0.1082972               2.9469
        31                          0.1248698               3.3979
        32                          0.1551559               4.2220
        33                          0.1683680               4.5815
        34                          0.1857927               5.0557
        35                          0.1914354               5.2092
       ...                                ...                  ...
        44                          0.6681030              18.1800
      -------------------------------------------------------------
                  HL-Gap            0.1528689 Eh            4.1598 eV

     #   Z          covCN         q      C6AA      α(0)
     1   6 C        2.921    -0.051    29.264     8.871
     2   6 C        2.917    -0.073    29.813     8.954
     3   6 C        2.861     0.103    25.716     8.312
     4   6 C        2.846     0.123    25.301     8.244
     5   6 C        2.919    -0.066    29.645     8.929
     6   6 C        2.919    -0.048    29.197     8.861
     7   1 H        0.926     0.054     2.276     2.359
     8   1 H        0.926     0.046     2.366     2.406
     9   8 O        1.659    -0.450    21.837     6.308
    10   1 H        0.804     0.372     0.540     1.154
    11   1 H        0.926     0.050     2.325     2.384
    12   1 H        0.926     0.045     2.381     2.413
    13   8 O        1.704    -0.312    19.211     5.918
    14   6 C        3.640     0.023    20.541     6.517
    15   1 H        0.924     0.053     2.286     2.364
    16   1 H        0.925     0.079     1.987     2.205
    17   1 H        0.924     0.053     2.286     2.364

Wiberg/Mayer (AO) data.
largest (>0.10) Wiberg bond orders for each atom

     #   Z sym  total        # sym  WBO       # sym  WBO       # sym  WBO
 ---------------------------------------------------------------------------
     1   6 C    3.990 --     6 C    1.453     2 C    1.414    12 H    0.970
     2   6 C    3.987 --     1 C    1.414     3 C    1.408    11 H    0.965
     3   6 C    3.930 --     2 C    1.408     4 C    1.290    13 O    1.032
     4   6 C    3.942 --     5 C    1.402     3 C    1.290     9 O    1.075
     5   6 C    3.986 --     6 C    1.422     4 C    1.402     7 H    0.967
     6   6 C    3.991 --     1 C    1.453     5 C    1.422     8 H    0.970
     7   1 H    0.996 --     5 C    0.967
     8   1 H    0.998 --     6 C    0.970
     9   8 O    2.080 --     4 C    1.075    10 H    0.839
    10   1 H    0.862 --     9 O    0.839
    11   1 H    0.998 --     2 C    0.965
    12   1 H    0.998 --     1 C    0.970
    13   8 O    2.188 --     3 C    1.032    14 C    0.972
    14   6 C    3.932 --    16 H    0.977    15 H    0.977    17 H    0.977
                            13 O    0.972
    15   1 H    0.997 --    14 C    0.977
    16   1 H    0.993 --    14 C    0.977
    17   1 H    0.997 --    14 C    0.977
 ---------------------------------------------------------------------------

molecular dipole:
                 x           y           z       tot (Debye)
 q only:        0.777      -0.646       0.000
   full:        0.978      -0.809       0.000       3.228

 projected vibrational frequencies (cm⁻¹)
eigval :       -0.00    -0.00    -0.00     0.00     0.00     0.00
eigval :       82.77   168.52   191.72   229.57   289.54   319.63
eigval :      436.26   454.58   473.04   507.67   527.56   561.62
eigval :      670.09   771.75   778.64   817.31   860.99   893.90
eigval :      914.52  1031.67  1080.91  1092.81  1117.86  1129.60
eigval :     1143.22  1170.57  1193.80  1261.23  1264.92  1351.07
eigval :     1390.03  1445.45  1457.37  1471.21  1483.12  1589.16
eigval :     1593.63  2947.76  2960.73  3034.38  3089.06  3097.49
eigval :     3108.12  3112.98  3428.12

   temp. (K)  partition function   enthalpy   heat capacity  entropy
                                   cal/mol     cal/K/mol   cal/K/mol   J/K/mol
 298.15  VIB   50.5                 3441.616     25.991     19.245
         ROT  0.433E+06              888.752      2.981     28.774
         INT  0.219E+08             4330.369     28.972     48.019
         TR   0.134E+28             1481.254      4.968     40.344
         TOT                        5811.6225    33.9403    88.3635   369.7127

       T/K    H(0)-H(T)+PV         H(T)/Eh          T*S/Eh         G(T)/Eh
   ------------------------------------------------------------------------
    298.15    0.926141E-02    0.141386E+00    0.419843E-01    0.994016E-01
   ------------------------------------------------------------------------

         :::::::::::::::::::::::::::::::::::::::::::::::::::::
         ::                  THERMODYNAMIC                  ::
         :::::::::::::::::::::::::::::::::::::::::::::::::::::
         :: total free energy         -27.095044383899 Eh   ::
         ::.................................................::
         :: total energy              -27.194445957538 Eh   ::
         :: zero point energy           0.132124492512 Eh   ::
         :: G(RRHO) w/o ZPVE           -0.032722918874 Eh   ::
         :: G(RRHO) contrib.            0.099401573639 Eh   ::
         :::::::::::::::::::::::::::::::::::::::::::::::::::::

           -------------------------------------------------
          | TOTAL ENERGY              -27.194445957538 Eh   |
          | TOTAL ENTHALPY            -27.053060055133 Eh   |
          | TOTAL FREE ENERGY         -27.095044383899 Eh   |
          | GRADIENT NORM               0.000997422249 Eh/α |
          | HOMO-LUMO GAP               4.159774578284 eV   |
           -------------------------------------------------

 * finished run on 2021/11/15 at 09:36:10.105
