   * xtb version 6.4.1 (afa7bdf) compiled by 'ehlert@majestix' on 2021-06-10
          program call               : xtb 23_4-methoxyaniline.xyz --gfn2 --chrg 0 --uhf 0 --alpb water --ohess -P 1
          number of atoms            :                    18
          number of electrons        :                    48
          charge                     :                     0

   ID    Z sym.   atoms
    1    6 C      1-6, 15
    2    1 H      7, 8, 10-13, 16-18
    3    7 N      9
    4    8 O      14

        Solvent                        water
        Solvent mass                       1.8000E+01 g/mol
          :  Hamiltonian                  GFN2-xTB          :
 * total energy  :   -26.5540249 Eh     change       -0.4242793E-09 Eh
 * total energy  :   -26.5549840 Eh     change       -0.9591505E-03 Eh
 * total energy  :   -26.5552010 Eh     change       -0.2169897E-03 Eh
 * total energy  :   -26.5552951 Eh     change       -0.9406067E-04 Eh
 * total energy  :   -26.5553422 Eh     change       -0.4709343E-04 Eh
 * total energy  :   -26.5553505 Eh     change       -0.8357097E-05 Eh
 * total energy  :   -26.5553520 Eh     change       -0.1474001E-05 Eh
   *** GEOMETRY OPTIMIZATION CONVERGED AFTER 7 ITERATIONS ***

 final structure:
================
18
 xtb: 6.4.1 (afa7bdf)
C         0.93512263447510    0.27034669264293    0.00057960697358
C         0.06832492335281    1.36187294262306    0.00461825415242
C        -1.29612363681206    1.17615379419770    0.01511079403890
C        -1.84383562553818   -0.11020693756323    0.02048266167185
C        -0.96789124052580   -1.19405269063567    0.01593699960612
C         0.40392299802167   -1.01177638348255    0.00502938281777
H         1.04382444317617   -1.87984417809864    0.00256599216882
H        -1.36594480635481   -2.19813048087200    0.01849548008239
N        -3.20977930781611   -0.29838800659853   -0.04405375327601
H        -3.54205321228511   -1.19864831046679    0.26035560836275
H        -3.77186913044482    0.47989320150776    0.25898293930557
H         0.49401996853014    2.35327139168722    0.00217858198406
H        -1.95243855118799    2.03361703009988    0.01722274353446
O         2.27960792947147    0.57201469728125   -0.00449400304954
C         3.20271376731537   -0.49580654168094   -0.00328152349291
H         4.18446564188037   -0.02695890237495   -0.00426037465659
H         3.09295668425653   -1.11467197228905    0.89217882572056
H         3.09238752048527   -1.11746934597746   -0.89666421594421

          :  Hamiltonian                  GFN2-xTB          :
         :: gradient norm              0.000193365245 Eh/a0 ::
         :: HOMO-LUMO gap              3.514896963624 eV    ::
         :: SCC energy               -26.955559815042 Eh    ::
         :: -> dispersion             -0.013536338982 Eh    ::
         :: -> Gsolv                  -0.009303924629 Eh    ::
         :: repulsion energy           0.400215483383 Eh    ::

    * Orbital Energies and Occupations

         #    Occupation            Energy/Eh            Energy/eV
      -------------------------------------------------------------
         1        2.0000           -0.7083692             -19.2757
       ...           ...                  ...                  ...
        12        2.0000           -0.5235938             -14.2477
        13        2.0000           -0.5075608             -13.8114
        14        2.0000           -0.4879181             -13.2769
        15        2.0000           -0.4829570             -13.1419
        16        2.0000           -0.4728306             -12.8664
        17        2.0000           -0.4650695             -12.6552
        18        2.0000           -0.4593839             -12.5005
        19        2.0000           -0.4550051             -12.3813
        20        2.0000           -0.4435887             -12.0707
        21        2.0000           -0.4134935             -11.2517
        22        2.0000           -0.4080976             -11.1049
        23        2.0000           -0.3969955             -10.8028
        24        2.0000           -0.3443859              -9.3712 (HOMO)
        25                         -0.2152159              -5.8563 (LUMO)
        26                         -0.1936440              -5.2693
        27                         -0.0772529              -2.1022
        28                          0.0277057               0.7539
        29                          0.0579087               1.5758
        30                          0.1194953               3.2516
        31                          0.1249959               3.4013
        32                          0.1568830               4.2690
        33                          0.1655392               4.5046
        34                          0.1704786               4.6390
        35                          0.2049054               5.5758
       ...                                ...                  ...
        45                          0.6756690              18.3859
      -------------------------------------------------------------
                  HL-Gap            0.1291701 Eh            3.5149 eV

     #   Z          covCN         q      C6AA      α(0)
     1   6 C        2.862     0.119    25.377     8.257
     2   6 C        2.919    -0.063    29.561     8.916
     3   6 C        2.924    -0.068    29.692     8.936
     4   6 C        2.896     0.070    26.439     8.431
     5   6 C        2.926    -0.071    29.782     8.950
     6   6 C        2.916    -0.072    29.797     8.951
     7   1 H        0.926     0.035     2.511     2.478
     8   1 H        0.926     0.035     2.517     2.481
     9   7 N        2.640    -0.321    28.272     7.897
    10   1 H        0.860     0.196     1.129     1.664
    11   1 H        0.860     0.196     1.129     1.664
    12   1 H        0.926     0.038     2.471     2.458
    13   1 H        0.926     0.037     2.483     2.464
    14   8 O        1.704    -0.325    19.433     5.952
    15   6 C        3.641     0.030    20.426     6.499
    16   1 H        0.925     0.072     2.062     2.246
    17   1 H        0.924     0.046     2.369     2.407
    18   1 H        0.924     0.046     2.367     2.406

Wiberg/Mayer (AO) data.
largest (>0.10) Wiberg bond orders for each atom

     #   Z sym  total        # sym  WBO       # sym  WBO       # sym  WBO
 ---------------------------------------------------------------------------
     1   6 C    3.926 --     6 C    1.381     2 C    1.351    14 O    1.023
     2   6 C    3.989 --     3 C    1.480     1 C    1.351    12 H    0.969
                             5 C    0.105
     3   6 C    3.987 --     2 C    1.480     4 C    1.332    13 H    0.968
                             6 C    0.100
     4   6 C    3.977 --     5 C    1.356     3 C    1.332     9 N    1.163
     5   6 C    3.986 --     6 C    1.444     4 C    1.356     8 H    0.969
                             2 C    0.105
     6   6 C    3.988 --     5 C    1.444     1 C    1.381     7 H    0.966
                             3 C    0.100
     7   1 H    0.998 --     6 C    0.966
     8   1 H    0.999 --     5 C    0.969
     9   7 N    3.226 --     4 C    1.163    11 H    0.943    10 H    0.943
    10   1 H    0.961 --     9 N    0.943
    11   1 H    0.961 --     9 N    0.943
    12   1 H    0.998 --     2 C    0.969
    13   1 H    0.998 --     3 C    0.968
    14   8 O    2.165 --     1 C    1.023    15 C    0.979
    15   6 C    3.939 --    14 O    0.979    16 H    0.978    18 H    0.977
                            17 H    0.977
    16   1 H    0.994 --    15 C    0.978
    17   1 H    0.998 --    15 C    0.977
    18   1 H    0.998 --    15 C    0.977
 ---------------------------------------------------------------------------

molecular dipole:
                 x           y           z       tot (Debye)
 q only:       -0.784      -0.586       0.220
   full:       -0.735      -0.698       0.419       2.788

 projected vibrational frequencies (cm⁻¹)
eigval :       -0.00    -0.00    -0.00     0.00     0.00     0.00
eigval :       72.94   144.50   219.73   233.99   349.52   359.08
eigval :      364.78   390.99   404.92   489.53   500.35   554.77
eigval :      613.04   661.43   736.95   792.07   851.06   866.56
eigval :      882.17   905.80  1002.59  1022.00  1050.95  1117.87
eigval :     1130.47  1153.94  1184.87  1205.16  1277.26  1310.94
eigval :     1343.45  1390.50  1427.39  1462.28  1465.01  1477.26
eigval :     1498.81  1576.11  1624.98  2929.09  2944.86  3028.81
eigval :     3072.11  3079.07  3097.03  3102.12  3465.76  3520.99

   temp. (K)  partition function   enthalpy   heat capacity  entropy
                                   cal/mol     cal/K/mol   cal/K/mol   J/K/mol
 298.15  VIB   63.2                 3625.590     27.517     20.234
         ROT  0.430E+06              888.752      2.981     28.760
         INT  0.272E+08             4514.343     30.498     48.995
         TR   0.132E+28             1481.254      4.968     40.320
         TOT                        5995.5966    35.4664    89.3153   373.6950

       T/K    H(0)-H(T)+PV         H(T)/Eh          T*S/Eh         G(T)/Eh
   ------------------------------------------------------------------------
    298.15    0.955459E-02    0.153890E+00    0.424366E-01    0.111453E+00
   ------------------------------------------------------------------------

         :::::::::::::::::::::::::::::::::::::::::::::::::::::
         ::                  THERMODYNAMIC                  ::
         :::::::::::::::::::::::::::::::::::::::::::::::::::::
         :: total free energy         -26.443898707422 Eh   ::
         ::.................................................::
         :: total energy              -26.555352003879 Eh   ::
         :: zero point energy           0.144335265630 Eh   ::
         :: G(RRHO) w/o ZPVE           -0.032881969173 Eh   ::
         :: G(RRHO) contrib.            0.111453296458 Eh   ::
         :::::::::::::::::::::::::::::::::::::::::::::::::::::

           -------------------------------------------------
          | TOTAL ENERGY              -26.555352003879 Eh   |
          | TOTAL ENTHALPY            -26.401462146836 Eh   |
          | TOTAL FREE ENERGY         -26.443898707422 Eh   |
          | GRADIENT NORM               0.000193708874 Eh/α |
          | HOMO-LUMO GAP               3.514896047165 eV   |
           -------------------------------------------------

 * finished run on 2021/11/15 at 09:36:18.813
