   * xtb version 6.4.1 (afa7bdf) compiled by 'ehlert@majestix' on 2021-06-10
          program call               : xtb 16_2-chlorophenol.xyz --gfn2 --chrg 0 --uhf 0 --alpb water --ohess -P 1
          number of atoms            :                    13
          number of electrons        :                    42
          charge                     :                     0

   ID    Z sym.   atoms
    1    6 C      1-6
    2    1 H      7, 9-12
    3    8 O      8
    4   17 Cl     13

        Solvent                        water
        Solvent mass                       1.8000E+01 g/mol
          :  Hamiltonian                  GFN2-xTB          :
 * total energy  :   -24.0128129 Eh     change       -0.1711946E-09 Eh
 * total energy  :   -24.0133735 Eh     change       -0.5606408E-03 Eh
 * total energy  :   -24.0134047 Eh     change       -0.3110914E-04 Eh
 * total energy  :   -24.0134090 Eh     change       -0.4362550E-05 Eh
   *** GEOMETRY OPTIMIZATION CONVERGED AFTER 4 ITERATIONS ***

 final structure:
================
13
 xtb: 6.4.1 (afa7bdf)
C        -1.82341821599623   -1.27251311521397   -0.00007098924972
C        -2.34877692510444    0.00912081888139   -0.00035087001243
C        -1.51256543196250    1.10807569368462   -0.00030411657462
C        -0.12882335844713    0.94653924648056    0.00000039650420
C         0.38114691392760   -0.35110209035030    0.00025840477596
C        -0.45152673116367   -1.45400831061841    0.00022695014645
H        -0.02559583796647   -2.44457485534111    0.00044420735081
O         0.65494458182323    2.04504183384248    0.00003759606430
H         1.59199250415145    1.78566636860525    0.00031889675323
H        -3.41682847351841    0.15517447518570   -0.00058220066043
H        -1.90199506260655    2.11278699143007   -0.00049949662219
H        -2.47452442910901   -2.13099503143741   -0.00009235723326
Cl        2.12076846597214   -0.57842802514888    0.00066357875772

          :  Hamiltonian                  GFN2-xTB          :
         :: gradient norm              0.000896600065 Eh/a0 ::
         :: HOMO-LUMO gap              4.174806647942 eV    ::
         :: SCC energy               -24.324819514654 Eh    ::
         :: -> dispersion             -0.010969778306 Eh    ::
         :: -> Gsolv                  -0.007601419131 Eh    ::
         :: repulsion energy           0.311392175725 Eh    ::

    * Orbital Energies and Occupations

         #    Occupation            Energy/Eh            Energy/eV
      -------------------------------------------------------------
         1        2.0000           -1.0691672             -29.0935
       ...           ...                  ...                  ...
         9        2.0000           -0.5423938             -14.7593
        10        2.0000           -0.5346394             -14.5483
        11        2.0000           -0.5229617             -14.2305
        12        2.0000           -0.4988551             -13.5745
        13        2.0000           -0.4905473             -13.3485
        14        2.0000           -0.4890078             -13.3066
        15        2.0000           -0.4793596             -13.0440
        16        2.0000           -0.4522745             -12.3070
        17        2.0000           -0.4519752             -12.2989
        18        2.0000           -0.4375208             -11.9055
        19        2.0000           -0.4284822             -11.6596
        20        2.0000           -0.4075151             -11.0890
        21        2.0000           -0.3883731             -10.5682 (HOMO)
        22                         -0.2349518              -6.3934 (LUMO)
        23                         -0.2240187              -6.0959
        24                         -0.1512583              -4.1159
        25                         -0.1023223              -2.7843
        26                          0.0015924               0.0433
        27                          0.0059813               0.1628
        28                          0.0076723               0.2088
        29                          0.0213444               0.5808
        30                          0.0753249               2.0497
        31                          0.1206331               3.2826
        32                          0.1388495               3.7783
       ...                                ...                  ...
        42                          0.6521692              17.7464
      -------------------------------------------------------------
                  HL-Gap            0.1534213 Eh            4.1748 eV

     #   Z          covCN         q      C6AA      α(0)
     1   6 C        2.922    -0.046    29.131     8.851
     2   6 C        2.919    -0.037    28.920     8.819
     3   6 C        2.923    -0.060    29.503     8.907
     4   6 C        2.872     0.145    24.835     8.169
     5   6 C        2.888     0.057    26.716     8.474
     6   6 C        2.947    -0.043    29.077     8.844
     7   1 H        0.926     0.062     2.170     2.303
     8   8 O        1.659    -0.424    21.311     6.232
     9   1 H        0.804     0.368     0.548     1.163
    10   1 H        0.926     0.067     2.119     2.276
    11   1 H        0.926     0.074     2.044     2.236
    12   1 H        0.926     0.064     2.152     2.294
    13  17 Cl       0.951    -0.228   106.355    15.777

Wiberg/Mayer (AO) data.
largest (>0.10) Wiberg bond orders for each atom

     #   Z sym  total        # sym  WBO       # sym  WBO       # sym  WBO
 ---------------------------------------------------------------------------
     1   6 C    3.989 --     6 C    1.433     2 C    1.428    12 H    0.967
     2   6 C    3.989 --     3 C    1.457     1 C    1.428    10 H    0.967
     3   6 C    3.984 --     2 C    1.457     4 C    1.355    11 H    0.964
                             6 C    0.107
     4   6 C    3.947 --     3 C    1.355     5 C    1.338     8 O    1.102
     5   6 C    3.887 --     6 C    1.421     4 C    1.338    13 Cl   0.928
     6   6 C    3.987 --     1 C    1.433     5 C    1.421     7 H    0.966
                             3 C    0.107
     7   1 H    0.996 --     6 C    0.966
     8   8 O    2.114 --     4 C    1.102     9 H    0.835
     9   1 H    0.865 --     8 O    0.835
    10   1 H    0.995 --     2 C    0.967
    11   1 H    0.995 --     3 C    0.964
    12   1 H    0.996 --     1 C    0.967
    13  17 Cl   1.068 --     5 C    0.928
 ---------------------------------------------------------------------------

molecular dipole:
                 x           y           z       tot (Debye)
 q only:       -0.793      -0.055      -0.000
   full:       -0.329      -0.382       0.000       1.281

 projected vibrational frequencies (cm⁻¹)
eigval :       -0.00    -0.00    -0.00     0.00     0.00     0.00
eigval :      146.99   226.13   252.93   341.69   408.03   418.91
eigval :      463.39   513.19   530.25   657.99   659.11   782.32
eigval :      821.28   871.99   904.46   919.30  1010.85  1077.35
eigval :     1116.70  1149.78  1170.27  1242.98  1266.50  1327.41
eigval :     1428.12  1460.39  1571.34  1591.98  3100.22  3103.54
eigval :     3114.32  3121.30  3387.33

   temp. (K)  partition function   enthalpy   heat capacity  entropy
                                   cal/mol     cal/K/mol   cal/K/mol   J/K/mol
 298.15  VIB   11.3                 2539.789     20.471     13.336
         ROT  0.401E+06              888.752      2.981     28.618
         INT  0.453E+07             3428.541     23.452     41.954
         TR   0.141E+28             1481.254      4.968     40.448
         TOT                        4909.7950    28.4197    82.4024   344.7718

       T/K    H(0)-H(T)+PV         H(T)/Eh          T*S/Eh         G(T)/Eh
   ------------------------------------------------------------------------
    298.15    0.782426E-02    0.993117E-01    0.391521E-01    0.601596E-01
   ------------------------------------------------------------------------

         :::::::::::::::::::::::::::::::::::::::::::::::::::::
         ::                  THERMODYNAMIC                  ::
         :::::::::::::::::::::::::::::::::::::::::::::::::::::
         :: total free energy         -23.953249373302 Eh   ::
         ::.................................................::
         :: total energy              -24.013409015316 Eh   ::
         :: zero point energy           0.091487439756 Eh   ::
         :: G(RRHO) w/o ZPVE           -0.031327797742 Eh   ::
         :: G(RRHO) contrib.            0.060159642014 Eh   ::
         :::::::::::::::::::::::::::::::::::::::::::::::::::::

           -------------------------------------------------
          | TOTAL ENERGY              -24.013409015316 Eh   |
          | TOTAL ENTHALPY            -23.914097319146 Eh   |
          | TOTAL FREE ENERGY         -23.953249373302 Eh   |
          | GRADIENT NORM               0.000896502362 Eh/α |
          | HOMO-LUMO GAP               4.174805923923 eV   |
           -------------------------------------------------

 * finished run on 2021/11/15 at 09:36:15.593
