   * xtb version 6.4.1 (afa7bdf) compiled by 'ehlert@majestix' on 2021-06-10
          program call               : xtb 08_4-hydroxy-acetophenone.xyz --gfn2 --chrg 0 --uhf 0 --alpb water --ohess -P 1
          number of atoms            :                    18
          number of electrons        :                    52
          charge                     :                     0

   ID    Z sym.   atoms
    1    6 C      1-6, 12, 14
    2    8 O      7, 13
    3    1 H      8-11, 15-18

        Solvent                        water
        Solvent mass                       1.8000E+01 g/mol
          :  Hamiltonian                  GFN2-xTB          :
 * total energy  :   -29.3348043 Eh     change       -0.1911644E-09 Eh
 * total energy  :   -29.3356384 Eh     change       -0.8340545E-03 Eh
 * total energy  :   -29.3357502 Eh     change       -0.1118010E-03 Eh
 * total energy  :   -29.3357641 Eh     change       -0.1397025E-04 Eh
 * total energy  :   -29.3357676 Eh     change       -0.3475782E-05 Eh
   *** GEOMETRY OPTIMIZATION CONVERGED AFTER 5 ITERATIONS ***

 final structure:
================
18
 xtb: 6.4.1 (afa7bdf)
C         0.66485862519881    0.05602619084841    0.00001335554817
C        -0.10718527182416    1.22192454094105   -0.00002140554627
C        -1.48288819579557    1.16973344665373   -0.00005133285755
C        -2.13010665849823   -0.06565245808924   -0.00001399429794
C        -1.36871779052386   -1.23705772568467    0.00006088999491
C         0.00612086840833   -1.17785308920931    0.00007545890515
O        -3.47190121625734   -0.18341118311236   -0.00002835629015
H        -3.90438628206157    0.68541360587764   -0.00009312400742
H         0.40829066562969    2.17112158817460   -0.00008124604445
H        -2.05771461585063    2.08409419309339   -0.00009884733457
H        -1.88661287105043   -2.18300390858580    0.00010253029080
C         2.13094735735197    0.19059972112546   -0.00005868399604
O         2.66944114163850    1.29177201179965    0.00006260088911
C         2.94975237199853   -1.07160822719765   -0.00006014083506
H         2.72076177668059   -1.66079692715852    0.88402413368888
H         2.72020135758677   -1.66119808746393   -0.88371880215706
H         4.00550601265472   -0.81306231950506   -0.00043384741896
H         0.56540772471387   -2.09847237250740    0.00013481146845

          :  Hamiltonian                  GFN2-xTB          :
         :: gradient norm              0.000725909129 Eh/a0 ::
         :: HOMO-LUMO gap              3.150919464918 eV    ::
         :: SCC energy               -29.757490596135 Eh    ::
         :: -> dispersion             -0.014311986264 Eh    ::
         :: -> Gsolv                  -0.017910543694 Eh    ::
         :: repulsion energy           0.421717780574 Eh    ::

    * Orbital Energies and Occupations

         #    Occupation            Energy/Eh            Energy/eV
      -------------------------------------------------------------
         1        2.0000           -0.7184766             -19.5507
       ...           ...                  ...                  ...
        14        2.0000           -0.5307184             -14.4416
        15        2.0000           -0.5109237             -13.9029
        16        2.0000           -0.4982601             -13.5583
        17        2.0000           -0.4859119             -13.2223
        18        2.0000           -0.4782810             -13.0147
        19        2.0000           -0.4710734             -12.8186
        20        2.0000           -0.4699888             -12.7890
        21        2.0000           -0.4659861             -12.6801
        22        2.0000           -0.4572794             -12.4432
        23        2.0000           -0.4267965             -11.6137
        24        2.0000           -0.4158406             -11.3156
        25        2.0000           -0.3953418             -10.7578
        26        2.0000           -0.3940326             -10.7222 (HOMO)
        27                         -0.2782384              -7.5713 (LUMO)
        28                         -0.2317923              -6.3074
        29                         -0.1897579              -5.1636
        30                         -0.0883782              -2.4049
        31                          0.0688332               1.8730
        32                          0.0908012               2.4708
        33                          0.1405868               3.8256
        34                          0.1431235               3.8946
        35                          0.1489024               4.0518
        36                          0.1740887               4.7372
        37                          0.1912992               5.2055
       ...                                ...                  ...
        48                          0.6580691              17.9070
      -------------------------------------------------------------
                  HL-Gap            0.1157943 Eh            3.1509 eV

     #   Z          covCN         q      C6AA      α(0)
     1   6 C        2.969    -0.031    28.766     8.798
     2   6 C        2.926    -0.021    28.535     8.760
     3   6 C        2.914    -0.074    29.838     8.957
     4   6 C        2.846     0.161    24.524     8.116
     5   6 C        2.917    -0.060    29.486     8.905
     6   6 C        2.920    -0.032    28.799     8.800
     7   8 O        1.660    -0.432    21.477     6.256
     8   1 H        0.804     0.384     0.515     1.127
     9   1 H        0.926     0.055     2.264     2.353
    10   1 H        0.926     0.057     2.236     2.338
    11   1 H        0.926     0.066     2.126     2.280
    12   6 C        2.820     0.237    23.042     7.865
    13   8 O        0.858    -0.465    23.026     6.434
    14   6 C        3.754    -0.155    23.549     6.920
    15   1 H        0.925     0.087     1.906     2.159
    16   1 H        0.925     0.087     1.906     2.159
    17   1 H        0.925     0.069     2.099     2.266
    18   1 H        0.926     0.066     2.131     2.283

Wiberg/Mayer (AO) data.
largest (>0.10) Wiberg bond orders for each atom

     #   Z sym  total        # sym  WBO       # sym  WBO       # sym  WBO
 ---------------------------------------------------------------------------
     1   6 C    3.987 --     2 C    1.360     6 C    1.354    12 C    1.061
     2   6 C    3.989 --     3 C    1.482     1 C    1.360     9 H    0.966
     3   6 C    3.986 --     2 C    1.482     4 C    1.348    10 H    0.964
     4   6 C    3.942 --     3 C    1.348     5 C    1.336     7 O    1.112
     5   6 C    3.987 --     6 C    1.495     4 C    1.336    11 H    0.966
     6   6 C    3.989 --     5 C    1.495     1 C    1.354    18 H    0.964
     7   8 O    2.107 --     4 C    1.112     8 H    0.831
     8   1 H    0.852 --     7 O    0.831
     9   1 H    0.997 --     2 C    0.966
    10   1 H    0.996 --     3 C    0.964
    11   1 H    0.995 --     5 C    0.966
    12   6 C    3.906 --    13 O    1.740     1 C    1.061    14 C    1.015
    13   8 O    1.979 --    12 C    1.740
    14   6 C    3.991 --    12 C    1.015    17 H    0.983    16 H    0.955
                            15 H    0.955
    15   1 H    0.992 --    14 C    0.955
    16   1 H    0.992 --    14 C    0.955
    17   1 H    0.995 --    14 C    0.983
    18   1 H    0.996 --     6 C    0.964
 ---------------------------------------------------------------------------

molecular dipole:
                 x           y           z       tot (Debye)
 q only:       -1.500      -0.855      -0.000
   full:       -1.519      -0.752      -0.000       4.309

 projected vibrational frequencies (cm⁻¹)
eigval :       -0.00    -0.00    -0.00    -0.00     0.00     0.00
eigval :       48.74    99.95   190.88   194.63   274.13   333.39
eigval :      371.57   376.19   444.67   452.12   473.58   554.51
eigval :      575.02   609.25   687.71   702.09   815.55   850.92
eigval :      859.23   914.60   924.17   979.60   983.80  1001.74
eigval :     1093.07  1094.41  1134.65  1176.09  1248.80  1267.37
eigval :     1275.18  1345.21  1357.18  1422.18  1444.61  1453.75
eigval :     1481.42  1563.98  1580.11  1648.00  3035.28  3038.07
eigval :     3053.00  3076.46  3091.47  3105.45  3119.59  3430.26

   temp. (K)  partition function   enthalpy   heat capacity  entropy
                                   cal/mol     cal/K/mol   cal/K/mol   J/K/mol
 298.15  VIB   175.                 3979.919     29.137     22.899
         ROT  0.622E+06              888.752      2.981     29.491
         INT  0.109E+09             4868.671     32.118     52.390
         TR   0.154E+28             1481.254      4.968     40.619
         TOT                        6349.9253    37.0862    93.0094   389.1513

       T/K    H(0)-H(T)+PV         H(T)/Eh          T*S/Eh         G(T)/Eh
   ------------------------------------------------------------------------
    298.15    0.101193E-01    0.147387E+00    0.441918E-01    0.103195E+00
   ------------------------------------------------------------------------

         :::::::::::::::::::::::::::::::::::::::::::::::::::::
         ::                  THERMODYNAMIC                  ::
         :::::::::::::::::::::::::::::::::::::::::::::::::::::
         :: total free energy         -29.232572258197 Eh   ::
         ::.................................................::
         :: total energy              -29.335767625653 Eh   ::
         :: zero point energy           0.137267883303 Eh   ::
         :: G(RRHO) w/o ZPVE           -0.034072515847 Eh   ::
         :: G(RRHO) contrib.            0.103195367456 Eh   ::
         :::::::::::::::::::::::::::::::::::::::::::::::::::::

           -------------------------------------------------
          | TOTAL ENERGY              -29.335767625653 Eh   |
          | TOTAL ENTHALPY            -29.188380492249 Eh   |
          | TOTAL FREE ENERGY         -29.232572258197 Eh   |
          | GRADIENT NORM               0.000725675341 Eh/α |
          | HOMO-LUMO GAP               3.150922928571 eV   |
           -------------------------------------------------

 * finished run on 2021/11/15 at 09:36:11.942
