   * xtb version 6.4.1 (afa7bdf) compiled by 'ehlert@majestix' on 2021-06-10
          program call               : xtb 25_4-chloroaniline.xyz --gfn2 --chrg 0 --uhf 0 --alpb water --ohess -P 1
          number of atoms            :                    14
          number of electrons        :                    42
          charge                     :                     0

   ID    Z sym.   atoms
    1    6 C      1-6
    2    1 H      7-10, 12, 13
    3    7 N      11
    4   17 Cl     14

        Solvent                        water
        Solvent mass                       1.8000E+01 g/mol
          :  Hamiltonian                  GFN2-xTB          :
 * total energy  :   -23.3771625 Eh     change       -0.5611156E-10 Eh
 * total energy  :   -23.3780192 Eh     change       -0.8567468E-03 Eh
 * total energy  :   -23.3782477 Eh     change       -0.2284453E-03 Eh
 * total energy  :   -23.3783789 Eh     change       -0.1311733E-03 Eh
 * total energy  :   -23.3784411 Eh     change       -0.6227282E-04 Eh
 * total energy  :   -23.3784567 Eh     change       -0.1554046E-04 Eh
 * total energy  :   -23.3784605 Eh     change       -0.3790180E-05 Eh
   *** GEOMETRY OPTIMIZATION CONVERGED AFTER 7 ITERATIONS ***

 final structure:
================
14
 xtb: 6.4.1 (afa7bdf)
C        -0.96104837322230    0.00000368850091   -0.00879156107687
C        -0.27714767538168    1.20398392725958   -0.00011219201951
C         1.10216964720991    1.20167027814944    0.01869452204983
C         1.82115650725133    0.00000532146371    0.02725374055564
C         1.10217586481736   -1.20165646874881    0.01870607204314
C        -0.27714806943233   -1.20396941670822   -0.00009586879283
H        -0.82245589126794    2.13462929253251   -0.00540625688533
H         1.63550912828531    2.13986122320985    0.02490376710273
H         1.63549656313705   -2.13985765074020    0.02493016441444
H        -0.82243999502882   -2.13462464856934   -0.00536953374897
N         3.18589292250434    0.00001766335633   -0.01659515300709
H         3.65926755674612    0.85521456910963    0.21685572491735
H         3.65929255972242   -0.85516780625010    0.21684977044512
Cl       -2.71015874534075    0.00001102743473   -0.02905219599766

          :  Hamiltonian                  GFN2-xTB          :
         :: gradient norm              0.000710244120 Eh/a0 ::
         :: HOMO-LUMO gap              3.617020291117 eV    ::
         :: SCC energy               -23.721265505916 Eh    ::
         :: -> dispersion             -0.011655309838 Eh    ::
         :: -> Gsolv                  -0.011593394690 Eh    ::
         :: repulsion energy           0.342796299945 Eh    ::

    * Orbital Energies and Occupations

         #    Occupation            Energy/Eh            Energy/eV
      -------------------------------------------------------------
         1        2.0000           -1.0586838             -28.8083
       ...           ...                  ...                  ...
         9        2.0000           -0.5284292             -14.3793
        10        2.0000           -0.5143913             -13.9973
        11        2.0000           -0.4954501             -13.4819
        12        2.0000           -0.4856006             -13.2139
        13        2.0000           -0.4841972             -13.1757
        14        2.0000           -0.4771923             -12.9851
        15        2.0000           -0.4637255             -12.6186
        16        2.0000           -0.4467908             -12.1578
        17        2.0000           -0.4314411             -11.7401
        18        2.0000           -0.4185321             -11.3888
        19        2.0000           -0.4145861             -11.2815
        20        2.0000           -0.4062263             -11.0540
        21        2.0000           -0.3563906              -9.6979 (HOMO)
        22                         -0.2234675              -6.0809 (LUMO)
        23                         -0.2105151              -5.7284
        24                         -0.1361941              -3.7060
        25                         -0.0909419              -2.4747
        26                          0.0179672               0.4889
        27                          0.0219414               0.5971
        28                          0.0220827               0.6009
        29                          0.0347270               0.9450
        30                          0.0451912               1.2297
        31                          0.1288018               3.5049
        32                          0.1490295               4.0553
       ...                                ...                  ...
        43                          0.6587281              17.9249
      -------------------------------------------------------------
                  HL-Gap            0.1329231 Eh            3.6170 eV

     #   Z          covCN         q      C6AA      α(0)
     1   6 C        2.889     0.078    26.256     8.401
     2   6 C        2.946    -0.045    29.112     8.849
     3   6 C        2.927    -0.068    29.695     8.937
     4   6 C        2.896     0.084    26.130     8.381
     5   6 C        2.927    -0.068    29.695     8.937
     6   6 C        2.946    -0.045    29.112     8.849
     7   1 H        0.926     0.050     2.320     2.382
     8   1 H        0.926     0.052     2.290     2.366
     9   1 H        0.926     0.052     2.290     2.366
    10   1 H        0.926     0.050     2.320     2.382
    11   7 N        2.642    -0.300    27.732     7.821
    12   1 H        0.860     0.209     1.060     1.613
    13   1 H        0.860     0.209     1.060     1.613
    14  17 Cl       0.953    -0.260   107.403    15.855

Wiberg/Mayer (AO) data.
largest (>0.10) Wiberg bond orders for each atom

     #   Z sym  total        # sym  WBO       # sym  WBO       # sym  WBO
 ---------------------------------------------------------------------------
     1   6 C    3.880 --     6 C    1.396     2 C    1.396    14 Cl   0.917
     2   6 C    3.989 --     3 C    1.467     1 C    1.396     7 H    0.968
     3   6 C    3.985 --     2 C    1.467     4 C    1.326     8 H    0.966
     4   6 C    3.979 --     5 C    1.326     3 C    1.326    11 N    1.210
     5   6 C    3.985 --     6 C    1.467     4 C    1.326     9 H    0.966
     6   6 C    3.989 --     5 C    1.467     1 C    1.396    10 H    0.968
     7   1 H    0.997 --     2 C    0.968
     8   1 H    0.997 --     3 C    0.966
     9   1 H    0.997 --     5 C    0.966
    10   1 H    0.997 --     6 C    0.968
    11   7 N    3.286 --     4 C    1.210    13 H    0.937    12 H    0.937
    12   1 H    0.956 --    11 N    0.937
    13   1 H    0.956 --    11 N    0.937
    14  17 Cl   1.025 --     1 C    0.917
 ---------------------------------------------------------------------------

molecular dipole:
                 x           y           z       tot (Debye)
 q only:        2.496      -0.000       0.197
   full:        2.198      -0.000       0.339       5.653

 projected vibrational frequencies (cm⁻¹)
eigval :       -0.00    -0.00    -0.00     0.00     0.00     0.00
eigval :      112.57   239.44   310.84   349.21   370.24   384.12
eigval :      400.23   415.74   476.77   605.17   619.35   653.80
eigval :      794.32   843.30   851.33   894.77   909.27   991.12
eigval :     1003.03  1104.49  1133.52  1185.50  1265.44  1309.75
eigval :     1337.44  1420.22  1447.38  1491.73  1568.52  1598.75
eigval :     3084.88  3087.44  3099.23  3102.79  3484.83  3544.51

   temp. (K)  partition function   enthalpy   heat capacity  entropy
                                   cal/mol     cal/K/mol   cal/K/mol   J/K/mol
 298.15  VIB   15.4                 2790.222     22.255     14.779
         ROT  0.405E+06              888.752      2.981     28.639
         INT  0.624E+07             3678.974     25.236     43.417
         TR   0.139E+28             1481.254      4.968     40.426
         TOT                        5160.2279    30.2044    83.8429   350.7986

       T/K    H(0)-H(T)+PV         H(T)/Eh          T*S/Eh         G(T)/Eh
   ------------------------------------------------------------------------
    298.15    0.822335E-02    0.111859E+00    0.398365E-01    0.720230E-01
   ------------------------------------------------------------------------

         :::::::::::::::::::::::::::::::::::::::::::::::::::::
         ::                  THERMODYNAMIC                  ::
         :::::::::::::::::::::::::::::::::::::::::::::::::::::
         :: total free energy         -23.306437436514 Eh   ::
         ::.................................................::
         :: total energy              -23.378460460967 Eh   ::
         :: zero point energy           0.103636131498 Eh   ::
         :: G(RRHO) w/o ZPVE           -0.031613107046 Eh   ::
         :: G(RRHO) contrib.            0.072023024452 Eh   ::
         :::::::::::::::::::::::::::::::::::::::::::::::::::::

           -------------------------------------------------
          | TOTAL ENERGY              -23.378460460967 Eh   |
          | TOTAL ENTHALPY            -23.266600982848 Eh   |
          | TOTAL FREE ENERGY         -23.306437436514 Eh   |
          | GRADIENT NORM               0.000711112309 Eh/α |
          | HOMO-LUMO GAP               3.617021680743 eV   |
           -------------------------------------------------

 * finished run on 2021/11/15 at 09:36:19.548
