   * xtb version 6.4.1 (afa7bdf) compiled by 'ehlert@majestix' on 2021-06-10
          program call               : xtb 06_4-ethyl-2-methoxyphenol.xyz --gfn2 --chrg 0 --uhf 0 --alpb water --ohess -P 1
          number of atoms            :                    23
          number of electrons        :                    60
          charge                     :                     0

   ID    Z sym.   atoms
    1    6 C      1-6, 11, 17, 20
    2    8 O      7, 10
    3    1 H      8, 9, 12-16, 18, 19, 21-23

        Solvent                        water
        Solvent mass                       1.8000E+01 g/mol
          :  Hamiltonian                  GFN2-xTB          :
 * total energy  :   -33.5280442 Eh     change       -0.7015544E-09 Eh
 * total energy  :   -33.5291827 Eh     change       -0.1138576E-02 Eh
 * total energy  :   -33.5293204 Eh     change       -0.1376745E-03 Eh
 * total energy  :   -33.5293513 Eh     change       -0.3089378E-04 Eh
 * total energy  :   -33.5293682 Eh     change       -0.1689082E-04 Eh
 * total energy  :   -33.5293729 Eh     change       -0.4693654E-05 Eh
   *** GEOMETRY OPTIMIZATION CONVERGED AFTER 6 ITERATIONS ***

 final structure:
================
23
 xtb: 6.4.1 (afa7bdf)
C         1.36423440343324    0.19305988031460    0.34935717559274
C         0.30164443453372   -0.70212133966791    0.25747562928556
C        -0.98702868589040   -0.25092073013077    0.04093054874375
C        -1.23021063428167    1.12619244848465   -0.08840503451522
C        -0.17203641876466    2.01332107287157   -0.00256141881188
C         1.11474041520439    1.54831306183825    0.21309381921258
O        -2.49344569197855    1.59642866349359   -0.29493112940560
H        -3.10607532049108    0.84420504696592   -0.32560672216851
H         0.50010729881416   -1.75729950893745    0.36119451858348
O        -2.10725793013752   -1.04765550292668   -0.06281257447970
C        -1.94765406273997   -2.44614689112213    0.04964908648879
H        -1.54438768851468   -2.71963850037141    1.02815132518994
H        -2.94771563268609   -2.85911139757804   -0.06278609096233
H        -1.29866435651498   -2.83344489593891   -0.74015017009894
H         1.92848077689086    2.25415127526202    0.27844556463109
H        -0.37758134982313    3.06685073629366   -0.10550223699083
C         2.76183661131306   -0.32345540698783    0.54741026111456
H         3.37596035382173    0.45190200159554    1.00748371019985
H         2.74548522421361   -1.18727189394991    1.21454503440261
C         3.38500288275621   -0.73210900006091   -0.78955247121018
H         3.42068343015910    0.12027191842602   -1.46376407335512
H         4.39626402659384   -1.10124648337118   -0.63920447099638
H         2.79441491408881   -1.51460255450271   -1.25985428045029

          :  Hamiltonian                  GFN2-xTB          :
         :: gradient norm              0.000680566141 Eh/a0 ::
         :: HOMO-LUMO gap              4.098106354077 eV    ::
         :: SCC energy               -33.994896126387 Eh    ::
         :: -> dispersion             -0.018215711395 Eh    ::
         :: -> Gsolv                  -0.009547403232 Eh    ::
         :: repulsion energy           0.465429753341 Eh    ::

    * Orbital Energies and Occupations

         #    Occupation            Energy/Eh            Energy/eV
      -------------------------------------------------------------
         1        2.0000           -0.7210920             -19.6219
       ...           ...                  ...                  ...
        18        2.0000           -0.4942978             -13.4505
        19        2.0000           -0.4863129             -13.2332
        20        2.0000           -0.4802363             -13.0679
        21        2.0000           -0.4698657             -12.7857
        22        2.0000           -0.4654449             -12.6654
        23        2.0000           -0.4622672             -12.5789
        24        2.0000           -0.4552752             -12.3887
        25        2.0000           -0.4357002             -11.8560
        26        2.0000           -0.4339992             -11.8097
        27        2.0000           -0.4268238             -11.6145
        28        2.0000           -0.4197478             -11.4219
        29        2.0000           -0.3913626             -10.6495
        30        2.0000           -0.3661810              -9.9643 (HOMO)
        31                         -0.2155785              -5.8662 (LUMO)
        32                         -0.2088033              -5.6818
        33                         -0.0857973              -2.3347
        34                          0.0099637               0.2711
        35                          0.0785637               2.1378
        36                          0.0972058               2.6451
        37                          0.1238899               3.3712
        38                          0.1294907               3.5236
        39                          0.1381517               3.7593
        40                          0.1578729               4.2959
        41                          0.1679117               4.5691
       ...                                ...                  ...
        56                          0.6626394              18.0313
      -------------------------------------------------------------
                  HL-Gap            0.1506026 Eh            4.0981 eV

     #   Z          covCN         q      C6AA      α(0)
     1   6 C        2.970    -0.000    28.029     8.684
     2   6 C        2.923    -0.080    29.991     8.981
     3   6 C        2.860     0.101    25.765     8.320
     4   6 C        2.846     0.117    25.415     8.262
     5   6 C        2.917    -0.068    29.697     8.936
     6   6 C        2.924    -0.056    29.400     8.892
     7   8 O        1.659    -0.454    21.917     6.320
     8   1 H        0.804     0.370     0.544     1.159
     9   1 H        0.926     0.048     2.347     2.396
    10   8 O        1.704    -0.315    19.248     5.923
    11   6 C        3.640     0.024    20.519     6.514
    12   1 H        0.924     0.052     2.293     2.368
    13   1 H        0.925     0.078     2.003     2.213
    14   1 H        0.924     0.052     2.294     2.368
    15   1 H        0.926     0.044     2.400     2.422
    16   1 H        0.926     0.051     2.303     2.373
    17   6 C        3.807    -0.064    21.727     6.636
    18   1 H        0.924     0.042     2.416     2.431
    19   1 H        0.924     0.044     2.399     2.422
    20   6 C        3.753    -0.108    22.631     6.784
    21   1 H        0.925     0.038     2.471     2.458
    22   1 H        0.925     0.045     2.387     2.416
    23   1 H        0.925     0.039     2.465     2.455

Wiberg/Mayer (AO) data.
largest (>0.10) Wiberg bond orders for each atom

     #   Z sym  total        # sym  WBO       # sym  WBO       # sym  WBO
 ---------------------------------------------------------------------------
     1   6 C    3.988 --     6 C    1.426     2 C    1.387    17 C    1.012
     2   6 C    3.984 --     3 C    1.412     1 C    1.387     9 H    0.963
     3   6 C    3.929 --     2 C    1.412     4 C    1.290    10 O    1.029
     4   6 C    3.940 --     5 C    1.402     3 C    1.290     7 O    1.069
     5   6 C    3.986 --     6 C    1.424     4 C    1.402    16 H    0.967
     6   6 C    3.989 --     1 C    1.426     5 C    1.424    15 H    0.968
     7   8 O    2.071 --     4 C    1.069     8 H    0.841
     8   1 H    0.863 --     7 O    0.841
     9   1 H    0.998 --     2 C    0.963
    10   8 O    2.185 --     3 C    1.029    11 C    0.973
    11   6 C    3.933 --    13 H    0.977    14 H    0.977    12 H    0.977
                            10 O    0.973
    12   1 H    0.997 --    11 C    0.977
    13   1 H    0.993 --    11 C    0.977
    14   1 H    0.997 --    11 C    0.977
    15   1 H    0.998 --     6 C    0.968
    16   1 H    0.996 --     5 C    0.967
    17   6 C    3.997 --     1 C    1.012    20 C    1.001    18 H    0.975
                            19 H    0.973
    18   1 H    0.998 --    17 C    0.975
    19   1 H    0.998 --    17 C    0.973
    20   6 C    3.994 --    17 C    1.001    21 H    0.988    23 H    0.988
                            22 H    0.986
    21   1 H    0.999 --    20 C    0.988
    22   1 H    0.997 --    20 C    0.986
    23   1 H    0.998 --    20 C    0.988
 ---------------------------------------------------------------------------

molecular dipole:
                 x           y           z       tot (Debye)
 q only:        0.276      -1.096       0.081
   full:        0.251      -1.341       0.089       3.475

 projected vibrational frequencies (cm⁻¹)
eigval :       -0.00    -0.00    -0.00     0.00     0.00     0.00
eigval :       37.63    81.17    98.03   171.14   179.28   210.68
eigval :      223.99   277.60   291.31   356.51   386.35   415.86
eigval :      433.91   453.37   527.47   533.87   603.52   670.33
eigval :      700.81   802.07   821.89   825.05   858.76   904.14
eigval :      921.74  1023.87  1045.14  1068.93  1079.23  1106.27
eigval :     1118.46  1135.33  1148.46  1160.24  1209.42  1232.57
eigval :     1264.80  1288.86  1318.56  1365.25  1392.68  1403.51
eigval :     1437.10  1458.08  1472.48  1482.89  1491.94  1493.24
eigval :     1502.94  1588.12  1602.44  2945.72  2958.76  2973.64
eigval :     2989.51  3031.62  3033.07  3033.89  3041.39  3086.67
eigval :     3100.17  3106.43  3433.20

   temp. (K)  partition function   enthalpy   heat capacity  entropy
                                   cal/mol     cal/K/mol   cal/K/mol   J/K/mol
 298.15  VIB  0.218E+04             5385.102     36.827     32.024
         ROT  0.996E+06              888.752      2.981     30.427
         INT  0.217E+10             6273.855     39.808     62.451
         TR   0.182E+28             1481.254      4.968     40.951
         TOT                        7755.1088    44.7763   103.4023   432.6353

       T/K    H(0)-H(T)+PV         H(T)/Eh          T*S/Eh         G(T)/Eh
   ------------------------------------------------------------------------
    298.15    0.123586E-01    0.200105E+00    0.491298E-01    0.150976E+00
   ------------------------------------------------------------------------

         :::::::::::::::::::::::::::::::::::::::::::::::::::::
         ::                  THERMODYNAMIC                  ::
         :::::::::::::::::::::::::::::::::::::::::::::::::::::
         :: total free energy         -33.378397287949 Eh   ::
         ::.................................................::
         :: total energy              -33.529372899755 Eh   ::
         :: zero point energy           0.187746842144 Eh   ::
         :: G(RRHO) w/o ZPVE           -0.036771230338 Eh   ::
         :: G(RRHO) contrib.            0.150975611806 Eh   ::
         :::::::::::::::::::::::::::::::::::::::::::::::::::::

           -------------------------------------------------
          | TOTAL ENERGY              -33.529372899755 Eh   |
          | TOTAL ENTHALPY            -33.329267505129 Eh   |
          | TOTAL FREE ENERGY         -33.378397287949 Eh   |
          | GRADIENT NORM               0.000681063093 Eh/α |
          | HOMO-LUMO GAP               4.098104096282 eV   |
           -------------------------------------------------

 * finished run on 2021/11/15 at 09:36:12.256
