   * xtb version 6.4.1 (afa7bdf) compiled by 'ehlert@majestix' on 2021-06-10
          program call               : xtb 19_4-cyanophenol.xyz --gfn2 --chrg 0 --uhf 0 --alpb water --ohess -P 1
          number of atoms            :                    14
          number of electrons        :                    44
          charge                     :                     0

   ID    Z sym.   atoms
    1    6 C      1-6, 13
    2    8 O      7
    3    1 H      8-12
    4    7 N      14

        Solvent                        water
        Solvent mass                       1.8000E+01 g/mol
          :  Hamiltonian                  GFN2-xTB          :
 * total energy  :   -24.4902064 Eh     change       -0.4261906E-09 Eh
 * total energy  :   -24.4911415 Eh     change       -0.9351317E-03 Eh
 * total energy  :   -24.4912126 Eh     change       -0.7102722E-04 Eh
 * total energy  :   -24.4912290 Eh     change       -0.1643351E-04 Eh
 * total energy  :   -24.4912324 Eh     change       -0.3362444E-05 Eh
   *** GEOMETRY OPTIMIZATION CONVERGED AFTER 5 ITERATIONS ***

 final structure:
================
14
 xtb: 6.4.1 (afa7bdf)
C        -1.07565925885027   -0.00072158220494    0.00010540080639
C        -0.36656616003375   -1.20427172500414    0.00010891105039
C         1.01165539413888   -1.19270556845046    0.00002088407829
C         1.70495017198836    0.01809733350851   -0.00003353700136
C         0.99290172048689    1.22066786482907    0.00000248275286
C        -0.38269992000767    1.21440936541172    0.00008423995897
O         3.04951008613330    0.08323270845365   -0.00009306894760
H         3.45088424784109   -0.80069804856389   -0.00014794665429
H        -0.90526048287541   -2.13940784345533    0.00012555984926
H         1.55283055659181   -2.12683129258926   -0.00001250267502
H         1.54606105510215    2.14596720659711   -0.00004664041984
H        -0.93384049860861    2.14202213155935    0.00006922196661
C        -2.48230054495891   -0.01206107066913   -0.00011164096961
N        -3.63232236694787   -0.02255047942227   -0.00008136379505

          :  Hamiltonian                  GFN2-xTB          :
         :: gradient norm              0.000905939541 Eh/a0 ::
         :: HOMO-LUMO gap              3.568032913602 eV    ::
         :: SCC energy               -24.921631915957 Eh    ::
         :: -> dispersion             -0.011239516873 Eh    ::
         :: -> Gsolv                  -0.019810387301 Eh    ::
         :: repulsion energy           0.430396319290 Eh    ::

    * Orbital Energies and Occupations

         #    Occupation            Energy/Eh            Energy/eV
      -------------------------------------------------------------
         1        2.0000           -0.7220282             -19.6474
       ...           ...                  ...                  ...
        10        2.0000           -0.5457795             -14.8514
        11        2.0000           -0.5374490             -14.6247
        12        2.0000           -0.5054022             -13.7527
        13        2.0000           -0.5043995             -13.7254
        14        2.0000           -0.5003603             -13.6155
        15        2.0000           -0.4934290             -13.4269
        16        2.0000           -0.4753361             -12.9346
        17        2.0000           -0.4720079             -12.8440
        18        2.0000           -0.4656239             -12.6703
        19        2.0000           -0.4353550             -11.8466
        20        2.0000           -0.4268071             -11.6140
        21        2.0000           -0.4238966             -11.5348
        22        2.0000           -0.3979215             -10.8280 (HOMO)
        23                         -0.2667986              -7.2600 (LUMO)
        24                         -0.2400148              -6.5311
        25                         -0.2123193              -5.7775
        26                         -0.1684974              -4.5850
        27                         -0.0840650              -2.2875
        28                          0.0673047               1.8315
        29                          0.1080419               2.9400
        30                          0.1337283               3.6389
        31                          0.1550994               4.2205
        32                          0.1664438               4.5292
        33                          0.1939115               5.2766
       ...                                ...                  ...
        41                          1.1576918              31.5024
      -------------------------------------------------------------
                  HL-Gap            0.1311229 Eh            3.5680 eV

     #   Z          covCN         q      C6AA      α(0)
     1   6 C        2.973     0.003    27.956     8.673
     2   6 C        2.926    -0.023    28.572     8.766
     3   6 C        2.916    -0.071    29.771     8.947
     4   6 C        2.845     0.162    24.488     8.110
     5   6 C        2.918    -0.056    29.399     8.891
     6   6 C        2.925    -0.023    28.570     8.766
     7   8 O        1.660    -0.432    21.479     6.256
     8   1 H        0.804     0.386     0.511     1.122
     9   1 H        0.926     0.054     2.275     2.359
    10   1 H        0.926     0.063     2.162     2.299
    11   1 H        0.926     0.067     2.119     2.277
    12   1 H        0.926     0.053     2.280     2.361
    13   6 C        1.913     0.121    28.117     8.564
    14   7 N        0.911    -0.305    27.855     7.633

Wiberg/Mayer (AO) data.
largest (>0.10) Wiberg bond orders for each atom

     #   Z sym  total        # sym  WBO       # sym  WBO       # sym  WBO
 ---------------------------------------------------------------------------
     1   6 C    3.986 --     2 C    1.345     6 C    1.335    13 C    1.114
     2   6 C    3.990 --     3 C    1.477     1 C    1.345     9 H    0.969
     3   6 C    3.987 --     2 C    1.477     4 C    1.349    10 H    0.963
     4   6 C    3.920 --     3 C    1.349     5 C    1.338     7 O    1.113
     5   6 C    3.988 --     6 C    1.490     4 C    1.338    11 H    0.965
     6   6 C    3.990 --     5 C    1.490     1 C    1.335    12 H    0.969
     7   8 O    2.110 --     4 C    1.113     8 H    0.830
     8   1 H    0.851 --     7 O    0.830
     9   1 H    0.997 --     2 C    0.969
    10   1 H    0.995 --     3 C    0.963
    11   1 H    0.994 --     5 C    0.965
    12   1 H    0.997 --     6 C    0.969
    13   6 C    3.938 --    14 N    2.767     1 C    1.114
    14   7 N    2.951 --    13 C    2.767
 ---------------------------------------------------------------------------

molecular dipole:
                 x           y           z       tot (Debye)
 q only:        2.058      -0.590      -0.000
   full:        2.414      -0.739      -0.000       6.417

 projected vibrational frequencies (cm⁻¹)
eigval :       -0.00    -0.00    -0.00    -0.00     0.00     0.00
eigval :       97.21   138.79   248.00   368.72   382.38   394.65
eigval :      442.43   454.53   532.47   537.75   620.83   679.10
eigval :      706.78   814.08   860.35   861.38   905.99   919.23
eigval :     1008.11  1091.93  1127.49  1175.26  1216.75  1262.98
eigval :     1283.75  1332.77  1415.89  1479.81  1556.47  1588.49
eigval :     2348.77  3085.11  3096.90  3099.65  3114.91  3426.91

   temp. (K)  partition function   enthalpy   heat capacity  entropy
                                   cal/mol     cal/K/mol   cal/K/mol   J/K/mol
 298.15  VIB   24.8                 2923.724     22.696     16.141
         ROT  0.394E+06              888.752      2.981     28.583
         INT  0.975E+07             3812.476     25.677     44.724
         TR   0.126E+28             1481.254      4.968     40.221
         TOT                        5293.7299    30.6449    84.9451   355.4103

       T/K    H(0)-H(T)+PV         H(T)/Eh          T*S/Eh         G(T)/Eh
   ------------------------------------------------------------------------
    298.15    0.843610E-02    0.107939E+00    0.403602E-01    0.675786E-01
   ------------------------------------------------------------------------

         :::::::::::::::::::::::::::::::::::::::::::::::::::::
         ::                  THERMODYNAMIC                  ::
         :::::::::::::::::::::::::::::::::::::::::::::::::::::
         :: total free energy         -24.423653718795 Eh   ::
         ::.................................................::
         :: total energy              -24.491232356045 Eh   ::
         :: zero point energy           0.099502705582 Eh   ::
         :: G(RRHO) w/o ZPVE           -0.031924068332 Eh   ::
         :: G(RRHO) contrib.            0.067578637250 Eh   ::
         :::::::::::::::::::::::::::::::::::::::::::::::::::::

           -------------------------------------------------
          | TOTAL ENERGY              -24.491232356045 Eh   |
          | TOTAL ENTHALPY            -24.383293554944 Eh   |
          | TOTAL FREE ENERGY         -24.423653718795 Eh   |
          | GRADIENT NORM               0.000905496691 Eh/α |
          | HOMO-LUMO GAP               3.568035614917 eV   |
           -------------------------------------------------

 * finished run on 2021/11/15 at 09:36:17.146
