   * xtb version 6.4.1 (afa7bdf) compiled by 'ehlert@majestix' on 2021-06-10
          program call               : xtb 02_2-methoxy-4-formylphenol.xyz --gfn2 --chrg 0 --uhf 0 --alpb water --ohess -P 1
          number of atoms            :                    19
          number of electrons        :                    58
          charge                     :                     0

   ID    Z sym.   atoms
    1    6 C      1-6, 11, 17
    2    8 O      7, 10, 18
    3    1 H      8, 9, 12-16, 19

        Solvent                        water
        Solvent mass                       1.8000E+01 g/mol
          :  Hamiltonian                  GFN2-xTB          :
 * total energy  :   -33.3918022 Eh     change       -0.2163958E-09 Eh
 * total energy  :   -33.3924478 Eh     change       -0.6456076E-03 Eh
 * total energy  :   -33.3925494 Eh     change       -0.1016286E-03 Eh
 * total energy  :   -33.3925665 Eh     change       -0.1704693E-04 Eh
 * total energy  :   -33.3925673 Eh     change       -0.8463566E-06 Eh
 * total energy  :   -33.3925691 Eh     change       -0.1771075E-05 Eh
 * total energy  :   -33.3925710 Eh     change       -0.1848290E-05 Eh
   *** GEOMETRY OPTIMIZATION CONVERGED AFTER 7 ITERATIONS ***

 final structure:
================
19
 xtb: 6.4.1 (afa7bdf)
C         1.41621229945873   -0.18952516699130    0.00007311731258
C         0.19933466899610   -0.88722089083501    0.00005486219004
C        -0.99291771119375   -0.19756257627662   -0.00001567372681
C        -0.98533843214792    1.21703057164525   -0.00001751745979
C         0.22493900708379    1.90118377471092   -0.00000911429000
C         1.41498589101136    1.20669853217849    0.00001124885996
O        -2.13814489206815    1.90696510223919   -0.00004181832904
H        -2.89283400224722    1.29201565531196   -0.00014396328206
H         0.21871153840301   -1.96506111102872    0.00010385622398
O        -2.24144154505728   -0.75602106830528   -0.00004120725835
C        -2.34994230672463   -2.16716290655646   -0.00037651283156
H        -1.89217499878453   -2.59554262549424    0.89405362241718
H        -3.41784066313183   -2.37146166352511   -0.00055558485038
H        -1.89194071496696   -2.59511535915503   -0.89489050702126
H         2.36183401982837    1.72324846046991    0.00003465135160
H         0.20158281369120    2.97838126270709   -0.00002796499626
C         2.66557004822393   -0.92322208263357    0.00017538431022
O         3.78138924576794   -0.43418157876396    0.00000445720462
H         2.55228673385783   -2.02375032969750    0.00020566417532

          :  Hamiltonian                  GFN2-xTB          :
         :: gradient norm              0.000479456280 Eh/a0 ::
         :: HOMO-LUMO gap              2.582120915743 eV    ::
         :: SCC energy               -33.812727827217 Eh    ::
         :: -> dispersion             -0.015501709794 Eh    ::
         :: -> Gsolv                  -0.016072766275 Eh    ::
         :: repulsion energy           0.420117146408 Eh    ::

    * Orbital Energies and Occupations

         #    Occupation            Energy/Eh            Energy/eV
      -------------------------------------------------------------
         1        2.0000           -0.7336193             -19.9628
       ...           ...                  ...                  ...
        17        2.0000           -0.5322045             -14.4820
        18        2.0000           -0.5315886             -14.4653
        19        2.0000           -0.5149949             -14.0137
        20        2.0000           -0.5013449             -13.6423
        21        2.0000           -0.4863842             -13.2352
        22        2.0000           -0.4793922             -13.0449
        23        2.0000           -0.4752512             -12.9322
        24        2.0000           -0.4605262             -12.5316
        25        2.0000           -0.4586008             -12.4792
        26        2.0000           -0.4414245             -12.0118
        27        2.0000           -0.4126643             -11.2292
        28        2.0000           -0.4048066             -11.0153
        29        2.0000           -0.3869696             -10.5300 (HOMO)
        30                         -0.2920784              -7.9479 (LUMO)
        31                         -0.2310745              -6.2879
        32                         -0.1955069              -5.3200
        33                         -0.0929057              -2.5281
        34                          0.0016383               0.0446
        35                          0.0737820               2.0077
        36                          0.1017353               2.7684
        37                          0.1107270               3.0130
        38                          0.1218857               3.3167
        39                          0.1607578               4.3744
        40                          0.1646589               4.4806
       ...                                ...                  ...
        52                          0.6620056              18.0141
      -------------------------------------------------------------
                  HL-Gap            0.0948911 Eh            2.5821 eV

     #   Z          covCN         q      C6AA      α(0)
     1   6 C        2.970    -0.026    28.652     8.780
     2   6 C        2.919    -0.067    29.680     8.934
     3   6 C        2.859     0.114    25.493     8.276
     4   6 C        2.846     0.145    24.844     8.169
     5   6 C        2.915    -0.062    29.541     8.913
     6   6 C        2.922    -0.027    28.676     8.782
     7   8 O        1.659    -0.411    21.058     6.195
     8   1 H        0.804     0.391     0.501     1.112
     9   1 H        0.926     0.066     2.129     2.282
    10   8 O        1.704    -0.292    18.847     5.861
    11   6 C        3.641     0.014    20.701     6.542
    12   1 H        0.924     0.059     2.210     2.325
    13   1 H        0.925     0.089     1.889     2.149
    14   1 H        0.924     0.059     2.210     2.325
    15   1 H        0.926     0.070     2.090     2.261
    16   1 H        0.926     0.079     1.985     2.203
    17   6 C        2.770     0.210    23.549     7.948
    18   8 O        0.856    -0.431    22.310     6.333
    19   1 H        0.922     0.021     2.725     2.582

Wiberg/Mayer (AO) data.
largest (>0.10) Wiberg bond orders for each atom

     #   Z sym  total        # sym  WBO       # sym  WBO       # sym  WBO
 ---------------------------------------------------------------------------
     1   6 C    3.987 --     6 C    1.354     2 C    1.318    17 C    1.114
     2   6 C    3.987 --     3 C    1.445     1 C    1.318     9 H    0.960
     3   6 C    3.941 --     2 C    1.445     4 C    1.250    10 O    1.055
     4   6 C    3.949 --     5 C    1.369     3 C    1.250     7 O    1.128
     5   6 C    3.985 --     6 C    1.466     4 C    1.369    16 H    0.963
     6   6 C    3.988 --     5 C    1.466     1 C    1.354    15 H    0.965
     7   8 O    2.123 --     4 C    1.128     8 H    0.822
     8   1 H    0.847 --     7 O    0.822
     9   1 H    0.996 --     2 C    0.960
    10   8 O    2.212 --     3 C    1.055    11 C    0.966
    11   6 C    3.925 --    14 H    0.977    12 H    0.977    13 H    0.976
                            10 O    0.966
    12   1 H    0.996 --    11 C    0.977
    13   1 H    0.992 --    11 C    0.976
    14   1 H    0.996 --    11 C    0.977
    15   1 H    0.995 --     6 C    0.965
    16   1 H    0.992 --     5 C    0.963
    17   6 C    3.910 --    18 O    1.779     1 C    1.114    19 H    0.933
    18   8 O    1.999 --    17 C    1.779
    19   1 H    0.999 --    17 C    0.933
 ---------------------------------------------------------------------------

molecular dipole:
                 x           y           z       tot (Debye)
 q only:       -2.532      -0.678      -0.000
   full:       -2.588      -1.049      -0.000       7.098

 projected vibrational frequencies (cm⁻¹)
eigval :       -0.00    -0.00    -0.00     0.00     0.00     0.00
eigval :       85.62    93.48   150.70   157.96   209.96   227.24
eigval :      264.95   319.25   328.16   388.89   435.74   492.53
eigval :      507.72   529.60   555.70   614.00   681.07   755.62
eigval :      811.21   825.09   849.62   912.42   919.83   951.47
eigval :     1035.02  1100.12  1115.49  1128.15  1146.56  1158.47
eigval :     1210.93  1244.84  1292.35  1353.66  1386.51  1392.88
eigval :     1436.70  1453.45  1468.02  1484.81  1554.33  1571.69
eigval :     1664.92  2763.38  2960.06  2970.38  3042.74  3105.60
eigval :     3108.21  3121.15  3385.28

   temp. (K)  partition function   enthalpy   heat capacity  entropy
                                   cal/mol     cal/K/mol   cal/K/mol   J/K/mol
 298.15  VIB   375.                 4702.788     32.823     27.423
         ROT  0.962E+06              888.752      2.981     30.359
         INT  0.361E+09             5591.540     35.804     57.782
         TR   0.182E+28             1481.254      4.968     40.950
         TOT                        7072.7943    40.7721    98.7323   413.0957

       T/K    H(0)-H(T)+PV         H(T)/Eh          T*S/Eh         G(T)/Eh
   ------------------------------------------------------------------------
    298.15    0.112712E-01    0.151888E+00    0.469109E-01    0.104977E+00
   ------------------------------------------------------------------------

         :::::::::::::::::::::::::::::::::::::::::::::::::::::
         ::                  THERMODYNAMIC                  ::
         :::::::::::::::::::::::::::::::::::::::::::::::::::::
         :: total free energy         -33.287593974722 Eh   ::
         ::.................................................::
         :: total energy              -33.392570956919 Eh   ::
         :: zero point energy           0.140616645411 Eh   ::
         :: G(RRHO) w/o ZPVE           -0.035639663214 Eh   ::
         :: G(RRHO) contrib.            0.104976982197 Eh   ::
         :::::::::::::::::::::::::::::::::::::::::::::::::::::

           -------------------------------------------------
          | TOTAL ENERGY              -33.392570956919 Eh   |
          | TOTAL ENTHALPY            -33.240683096342 Eh   |
          | TOTAL FREE ENERGY         -33.287593974722 Eh   |
          | GRADIENT NORM               0.000479093874 Eh/α |
          | HOMO-LUMO GAP               2.582119465046 eV   |
           -------------------------------------------------

 * finished run on 2021/11/15 at 09:36:10.452
