   * xtb version 6.4.1 (afa7bdf) compiled by 'ehlert@majestix' on 2021-06-10
          program call               : xtb 21_2-methoxyaniline.xyz --gfn2 --chrg 0 --uhf 0 --alpb water --ohess -P 1
          number of atoms            :                    18
          number of electrons        :                    48
          charge                     :                     0

   ID    Z sym.   atoms
    1    6 C      1-6, 15
    2    1 H      7, 8, 10-13, 16-18
    3    7 N      9
    4    8 O      14

        Solvent                        water
        Solvent mass                       1.8000E+01 g/mol
          :  Hamiltonian                  GFN2-xTB          :
 * total energy  :   -26.5537903 Eh     change       -0.2135678E-09 Eh
 * total energy  :   -26.5547580 Eh     change       -0.9676957E-03 Eh
 * total energy  :   -26.5549551 Eh     change       -0.1970560E-03 Eh
 * total energy  :   -26.5550497 Eh     change       -0.9462667E-04 Eh
 * total energy  :   -26.5550950 Eh     change       -0.4535044E-04 Eh
 * total energy  :   -26.5551027 Eh     change       -0.7669266E-05 Eh
 * total energy  :   -26.5551038 Eh     change       -0.1064634E-05 Eh
   *** GEOMETRY OPTIMIZATION CONVERGED AFTER 7 ITERATIONS ***

 final structure:
================
18
 xtb: 6.4.1 (afa7bdf)
C         1.32702651090765   -1.69419700326684    0.00367818053452
C        -0.02896032191478   -1.38897952985956    0.00115911313353
C        -0.44672062291498   -0.07242658615593   -0.00827253591512
C         0.50186761146642    0.97284728354397   -0.01432832840589
C         1.85236319292086    0.64205895239667   -0.02058518627043
C         2.26320269581104   -0.68013599109178   -0.00930188840663
H         3.31728098134867   -0.91304180910857   -0.01311723520723
H         2.58238761573334    1.43770890154987   -0.03085829717026
N         0.07582522216040    2.28170251433806    0.05570220872060
H         0.72408982567230    2.97340502878351   -0.28250437473952
H        -0.88661144797695    2.42451058360347   -0.20447630520689
H        -0.74752163881125   -2.19314632968556    0.00469554289277
H         1.63729600311172   -2.72769826237537    0.01293288589826
O        -1.76450806988479    0.33890381541479   -0.02793007353385
C        -2.77309155006686   -0.64690781327506   -0.02880334032432
H        -3.71225328741971   -0.09766717251683   -0.04453190803257
H        -2.70548417156820   -1.28419279261571   -0.91550021482465
H        -2.72498654857487   -1.26464578967911    0.87241375685765

          :  Hamiltonian                  GFN2-xTB          :
         :: gradient norm              0.000336914220 Eh/a0 ::
         :: HOMO-LUMO gap              3.786179684167 eV    ::
         :: SCC energy               -26.954986250420 Eh    ::
         :: -> dispersion             -0.013827938151 Eh    ::
         :: -> Gsolv                  -0.008332036003 Eh    ::
         :: repulsion energy           0.399838789983 Eh    ::

    * Orbital Energies and Occupations

         #    Occupation            Energy/Eh            Energy/eV
      -------------------------------------------------------------
         1        2.0000           -0.7112040             -19.3528
       ...           ...                  ...                  ...
        12        2.0000           -0.5211606             -14.1815
        13        2.0000           -0.5042567             -13.7215
        14        2.0000           -0.4911341             -13.3644
        15        2.0000           -0.4853240             -13.2063
        16        2.0000           -0.4786084             -13.0236
        17        2.0000           -0.4662613             -12.6876
        18        2.0000           -0.4581681             -12.4674
        19        2.0000           -0.4439317             -12.0800
        20        2.0000           -0.4316179             -11.7449
        21        2.0000           -0.4264004             -11.6029
        22        2.0000           -0.4189011             -11.3989
        23        2.0000           -0.3829211             -10.4198
        24        2.0000           -0.3464481              -9.4273 (HOMO)
        25                         -0.2073086              -5.6412 (LUMO)
        26                         -0.2002430              -5.4489
        27                         -0.0769917              -2.0951
        28                          0.0195335               0.5315
        29                          0.0617295               1.6797
        30                          0.1178360               3.2065
        31                          0.1239720               3.3735
        32                          0.1502641               4.0889
        33                          0.1722386               4.6868
        34                          0.1810964               4.9279
        35                          0.2023201               5.5054
       ...                                ...                  ...
        45                          0.6789628              18.4755
      -------------------------------------------------------------
                  HL-Gap            0.1391395 Eh            3.7862 eV

     #   Z          covCN         q      C6AA      α(0)
     1   6 C        2.920    -0.057    29.426     8.896
     2   6 C        2.916    -0.075    29.866     8.962
     3   6 C        2.866     0.106    25.650     8.302
     4   6 C        2.897     0.058    26.695     8.471
     5   6 C        2.924    -0.074    29.843     8.959
     6   6 C        2.917    -0.050    29.230     8.866
     7   1 H        0.926     0.029     2.594     2.519
     8   1 H        0.926     0.035     2.513     2.479
     9   7 N        2.640    -0.314    28.078     7.870
    10   1 H        0.860     0.201     1.101     1.644
    11   1 H        0.860     0.200     1.104     1.646
    12   1 H        0.926     0.034     2.531     2.488
    13   1 H        0.926     0.026     2.640     2.541
    14   8 O        1.704    -0.316    19.270     5.927
    15   6 C        3.640     0.028    20.460     6.505
    16   1 H        0.925     0.074     2.039     2.233
    17   1 H        0.924     0.046     2.372     2.408
    18   1 H        0.924     0.047     2.363     2.404

Wiberg/Mayer (AO) data.
largest (>0.10) Wiberg bond orders for each atom

     #   Z sym  total        # sym  WBO       # sym  WBO       # sym  WBO
 ---------------------------------------------------------------------------
     1   6 C    3.990 --     6 C    1.450     2 C    1.400    13 H    0.972
     2   6 C    3.987 --     3 C    1.426     1 C    1.400    12 H    0.966
     3   6 C    3.926 --     2 C    1.426     4 C    1.266    14 O    1.023
     4   6 C    3.977 --     5 C    1.375     3 C    1.266     9 N    1.171
     5   6 C    3.985 --     6 C    1.429     4 C    1.375     8 H    0.968
     6   6 C    3.992 --     1 C    1.450     5 C    1.429     7 H    0.971
     7   1 H    0.999 --     6 C    0.971
     8   1 H    0.998 --     5 C    0.968
     9   7 N    3.247 --     4 C    1.171    10 H    0.940    11 H    0.939
    10   1 H    0.959 --     9 N    0.940
    11   1 H    0.960 --     9 N    0.939
    12   1 H    0.998 --     2 C    0.966
    13   1 H    0.999 --     1 C    0.972
    14   8 O    2.180 --     3 C    1.023    15 C    0.979
    15   6 C    3.939 --    14 O    0.979    16 H    0.978    18 H    0.977
                            17 H    0.977
    16   1 H    0.994 --    15 C    0.978
    17   1 H    0.998 --    15 C    0.977
    18   1 H    0.998 --    15 C    0.977
 ---------------------------------------------------------------------------

molecular dipole:
                 x           y           z       tot (Debye)
 q only:       -0.450       0.436      -0.213
   full:       -0.525       0.304      -0.408       1.857

 projected vibrational frequencies (cm⁻¹)
eigval :       -0.00    -0.00    -0.00     0.00     0.00     0.00
eigval :       81.37   160.44   223.51   232.26   287.85   322.83
eigval :      359.36   433.20   472.55   493.01   523.20   554.38
eigval :      564.89   669.06   770.67   771.47   833.21   850.68
eigval :      881.64   909.46  1017.85  1041.66  1098.61  1118.37
eigval :     1129.19  1150.23  1177.27  1200.16  1267.77  1295.93
eigval :     1361.00  1393.61  1440.93  1458.32  1460.88  1478.59
eigval :     1505.55  1583.32  1595.01  2932.69  2949.07  3028.47
eigval :     3071.97  3077.96  3089.20  3103.04  3464.57  3523.78

   temp. (K)  partition function   enthalpy   heat capacity  entropy
                                   cal/mol     cal/K/mol   cal/K/mol   J/K/mol
 298.15  VIB   56.3                 3609.007     27.444     20.016
         ROT  0.436E+06              888.752      2.981     28.785
         INT  0.245E+08             4497.760     30.425     48.801
         TR   0.132E+28             1481.254      4.968     40.320
         TOT                        5979.0136    35.3928    89.1213   372.8836

       T/K    H(0)-H(T)+PV         H(T)/Eh          T*S/Eh         G(T)/Eh
   ------------------------------------------------------------------------
    298.15    0.952816E-02    0.153987E+00    0.423444E-01    0.111642E+00
   ------------------------------------------------------------------------

         :::::::::::::::::::::::::::::::::::::::::::::::::::::
         ::                  THERMODYNAMIC                  ::
         :::::::::::::::::::::::::::::::::::::::::::::::::::::
         :: total free energy         -26.443461315218 Eh   ::
         ::.................................................::
         :: total energy              -26.555103768463 Eh   ::
         :: zero point energy           0.144458701219 Eh   ::
         :: G(RRHO) w/o ZPVE           -0.032816247974 Eh   ::
         :: G(RRHO) contrib.            0.111642453244 Eh   ::
         :::::::::::::::::::::::::::::::::::::::::::::::::::::

           -------------------------------------------------
          | TOTAL ENERGY              -26.555103768463 Eh   |
          | TOTAL ENTHALPY            -26.401116902604 Eh   |
          | TOTAL FREE ENERGY         -26.443461315218 Eh   |
          | GRADIENT NORM               0.000337387892 Eh/α |
          | HOMO-LUMO GAP               3.786179244414 eV   |
           -------------------------------------------------

 * finished run on 2021/11/15 at 09:36:18.502
