   * xtb version 6.4.1 (afa7bdf) compiled by 'ehlert@majestix' on 2021-06-10
          program call               : xtb 27_diethylamine.xyz --gfn2 --chrg 0 --uhf 0 --alpb water --ohess -P 1
          number of atoms            :                    16
          number of electrons        :                    32
          charge                     :                     0

   ID    Z sym.   atoms
    1    7 N      1
    2    1 H      2, 4, 5, 7-9, 11, 12, 14-16
    3    6 C      3, 6, 10, 13

        Solvent                        water
        Solvent mass                       1.8000E+01 g/mol
          :  Hamiltonian                  GFN2-xTB          :
 * total energy  :   -17.0868158 Eh     change       -0.1964295E-10 Eh
 * total energy  :   -17.0876725 Eh     change       -0.8566917E-03 Eh
 * total energy  :   -17.0878393 Eh     change       -0.1668412E-03 Eh
 * total energy  :   -17.0878770 Eh     change       -0.3763210E-04 Eh
 * total energy  :   -17.0878987 Eh     change       -0.2179713E-04 Eh
 * total energy  :   -17.0879075 Eh     change       -0.8715840E-05 Eh
 * total energy  :   -17.0879155 Eh     change       -0.8027460E-05 Eh
 * total energy  :   -17.0879171 Eh     change       -0.1578437E-05 Eh
   *** GEOMETRY OPTIMIZATION CONVERGED AFTER 8 ITERATIONS ***

 final structure:
================
16
 xtb: 6.4.1 (afa7bdf)
N         0.08622776037949   -0.26389805750065    0.00000000116169
H        -0.64020989445079   -0.97555555789713    0.00000000431927
C        -0.02465969623279    0.52746835720226    1.21214872047290
H         0.82496917817887    1.21815323958262    1.22957585157561
H        -0.94743900608388    1.13949210391918    1.22267010183579
C         0.01101684153834   -0.36655204373627    2.44319691104518
H         0.91278450425440   -0.97136072597983    2.43398703960740
H        -0.00103953002162    0.23922750123645    3.34479383701014
H        -0.85149572068294   -1.02917912381106    2.45750672242306
C        -0.02465969922007    0.52746835375954   -1.21214872044384
H         0.82496917475115    1.21815323600424   -1.22957585315093
H        -0.94743900961975    1.13949210356396   -1.22267010248048
C         0.01101684088228   -0.36655204223182   -2.44319691234886
H        -0.85149572345346   -1.02917911941922   -2.45750672506902
H        -0.00103952403308    0.23922750296385   -3.34479383907774
H         0.91278450381384   -0.97136072765610   -2.43398703688018

          :  Hamiltonian                  GFN2-xTB          :
         :: gradient norm              0.000291858380 Eh/a0 ::
         :: HOMO-LUMO gap             10.704003824967 eV    ::
         :: SCC energy               -17.322282028015 Eh    ::
         :: -> dispersion             -0.007612618793 Eh    ::
         :: -> Gsolv                  -0.002436922174 Eh    ::
         :: repulsion energy           0.234362242202 Eh    ::

    * Orbital Energies and Occupations

         #    Occupation            Energy/Eh            Energy/eV
      -------------------------------------------------------------
         1        2.0000           -0.6321943             -17.2029
       ...           ...                  ...                  ...
         4        2.0000           -0.5646613             -15.3652
         5        2.0000           -0.5626303             -15.3100
         6        2.0000           -0.5262620             -14.3203
         7        2.0000           -0.5183026             -14.1037
         8        2.0000           -0.4969551             -13.5228
         9        2.0000           -0.4954744             -13.4825
        10        2.0000           -0.4695577             -12.7773
        11        2.0000           -0.4535856             -12.3427
        12        2.0000           -0.4529141             -12.3244
        13        2.0000           -0.4407887             -11.9945
        14        2.0000           -0.4385156             -11.9326
        15        2.0000           -0.4334206             -11.7940
        16        2.0000           -0.3534466              -9.6178 (HOMO)
        17                          0.0399184               1.0862 (LUMO)
        18                          0.1001072               2.7241
        19                          0.1166866               3.1752
        20                          0.1270669               3.4577
        21                          0.1546532               4.2083
        22                          0.1615211               4.3952
        23                          0.1709822               4.6527
        24                          0.1800868               4.9004
        25                          0.1830984               4.9824
        26                          0.1957049               5.3254
        27                          0.2340828               6.3697
       ...                                ...                  ...
        31                          0.2863817               7.7928
      -------------------------------------------------------------
                  HL-Gap            0.3933649 Eh           10.7040 eV

     #   Z          covCN         q      C6AA      α(0)
     1   7 N        2.680    -0.291    27.496     7.788
     2   1 H        0.860     0.152     1.388     1.846
     3   6 C        3.741     0.022    20.280     6.425
     4   1 H        0.924     0.030     2.591     2.517
     5   1 H        0.922    -0.005     3.151     2.776
     6   6 C        3.753    -0.121    22.881     6.821
     7   1 H        0.925     0.055     2.256     2.349
     8   1 H        0.925     0.047     2.357     2.401
     9   1 H        0.925     0.042     2.421     2.433
    10   6 C        3.741     0.022    20.280     6.425
    11   1 H        0.924     0.030     2.591     2.517
    12   1 H        0.922    -0.005     3.151     2.776
    13   6 C        3.753    -0.121    22.881     6.821
    14   1 H        0.925     0.042     2.421     2.433
    15   1 H        0.925     0.047     2.357     2.401
    16   1 H        0.925     0.055     2.256     2.349

Wiberg/Mayer (AO) data.
largest (>0.10) Wiberg bond orders for each atom

     #   Z sym  total        # sym  WBO       # sym  WBO       # sym  WBO
 ---------------------------------------------------------------------------
     1   7 N    3.054 --     3 C    1.013    10 C    1.013     2 H    0.951
     2   1 H    0.977 --     1 N    0.951
     3   6 C    3.988 --     6 C    1.018     1 N    1.013     4 H    0.974
                             5 H    0.966
     4   1 H    0.999 --     3 C    0.974
     5   1 H    1.000 --     3 C    0.966
     6   6 C    3.994 --     3 C    1.018     9 H    0.987     7 H    0.986
                             8 H    0.986
     7   1 H    0.997 --     6 C    0.986
     8   1 H    0.997 --     6 C    0.986
     9   1 H    0.998 --     6 C    0.987
    10   6 C    3.988 --    13 C    1.018     1 N    1.013    11 H    0.974
                            12 H    0.966
    11   1 H    0.999 --    10 C    0.974
    12   1 H    1.000 --    10 C    0.966
    13   6 C    3.994 --    10 C    1.018    14 H    0.987    16 H    0.986
                            15 H    0.986
    14   1 H    0.998 --    13 C    0.987
    15   1 H    0.997 --    13 C    0.986
    16   1 H    0.997 --    13 C    0.986
 ---------------------------------------------------------------------------

molecular dipole:
                 x           y           z       tot (Debye)
 q only:       -0.072      -0.133       0.000
   full:       -0.404       0.027       0.000       1.030

 projected vibrational frequencies (cm⁻¹)
eigval :       -0.00    -0.00     0.00     0.00     0.00     0.00
eigval :      109.01   115.82   185.99   227.63   234.28   412.51
eigval :      422.37   814.65   832.10   854.99   922.66   980.61
eigval :     1062.17  1092.31  1101.55  1155.58  1167.56  1197.20
eigval :     1242.50  1276.85  1315.78  1351.06  1401.73  1406.16
eigval :     1406.50  1485.79  1486.21  1493.73  1494.80  1498.89
eigval :     1500.94  2756.83  2763.88  2936.16  2939.20  3026.69
eigval :     3027.00  3044.42  3044.94  3054.42  3055.03  3346.45

   temp. (K)  partition function   enthalpy   heat capacity  entropy
                                   cal/mol     cal/K/mol   cal/K/mol   J/K/mol
 298.15  VIB   32.0                 2603.845     17.777     15.582
         ROT  0.100E+06              888.752      2.981     25.861
         INT  0.320E+07             3492.598     20.758     41.443
         TR   0.605E+27             1481.254      4.968     38.768
         TOT                        4973.8515    25.7258    80.2110   335.6027

       T/K    H(0)-H(T)+PV         H(T)/Eh          T*S/Eh         G(T)/Eh
   ------------------------------------------------------------------------
    298.15    0.792634E-02    0.154287E+00    0.381108E-01    0.116176E+00
   ------------------------------------------------------------------------

         :::::::::::::::::::::::::::::::::::::::::::::::::::::
         ::                  THERMODYNAMIC                  ::
         :::::::::::::::::::::::::::::::::::::::::::::::::::::
         :: total free energy         -16.971740811060 Eh   ::
         ::.................................................::
         :: total energy              -17.087917070562 Eh   ::
         :: zero point energy           0.146360741896 Eh   ::
         :: G(RRHO) w/o ZPVE           -0.030184482394 Eh   ::
         :: G(RRHO) contrib.            0.116176259502 Eh   ::
         :::::::::::::::::::::::::::::::::::::::::::::::::::::

           -------------------------------------------------
          | TOTAL ENERGY              -17.087917070562 Eh   |
          | TOTAL ENTHALPY            -16.933629991735 Eh   |
          | TOTAL FREE ENERGY         -16.971740811060 Eh   |
          | GRADIENT NORM               0.000291842515 Eh/α |
          | HOMO-LUMO GAP              10.704004565531 eV   |
           -------------------------------------------------

 * finished run on 2021/11/15 at 09:36:19.682
