   * xtb version 6.4.1 (afa7bdf) compiled by 'ehlert@majestix' on 2021-06-10
          program call               : xtb 24_2-chloroaniline.xyz --gfn2 --chrg 0 --uhf 0 --alpb water --ohess -P 1
          number of atoms            :                    14
          number of electrons        :                    42
          charge                     :                     0

   ID    Z sym.   atoms
    1    6 C      1-6
    2    1 H      7, 9-13
    3    7 N      8
    4   17 Cl     14

        Solvent                        water
        Solvent mass                       1.8000E+01 g/mol
          :  Hamiltonian                  GFN2-xTB          :
 * total energy  :   -23.3759900 Eh     change       -0.1718625E-09 Eh
 * total energy  :   -23.3768865 Eh     change       -0.8965667E-03 Eh
 * total energy  :   -23.3771036 Eh     change       -0.2170913E-03 Eh
 * total energy  :   -23.3772254 Eh     change       -0.1217890E-03 Eh
 * total energy  :   -23.3772801 Eh     change       -0.5472816E-04 Eh
 * total energy  :   -23.3772959 Eh     change       -0.1576540E-04 Eh
 * total energy  :   -23.3772998 Eh     change       -0.3934901E-05 Eh
   *** GEOMETRY OPTIMIZATION CONVERGED AFTER 7 ITERATIONS ***

 final structure:
================
14
 xtb: 6.4.1 (afa7bdf)
C        -1.82377111042080   -1.28832213857840   -0.00539625886478
C        -2.35053742229217   -0.00611015078701   -0.00093140024715
C        -1.51887781748355    1.09368751381262    0.01474087301074
C        -0.12509620908796    0.95430094616726    0.02355826977487
C         0.37705495666470   -0.35322522735182    0.02049341686230
C        -0.44946938750192   -1.45815332127043    0.00599931361449
H        -0.01712295450853   -2.44700276925258    0.00576215585669
N         0.69515150653916    2.04285828397634   -0.02654538792623
H         0.30199652570110    2.93065099433112    0.23249426900630
H         1.66502848256614    1.89243931516583    0.19447317987178
H        -1.93488365066145    2.08955661987280    0.01759564036933
H        -3.42037097035882    0.13574522676320   -0.00697889739315
H        -2.47069692109584   -2.15045722946533   -0.01644894837775
Cl        2.11253497193996   -0.59920006338360    0.04249777444256

          :  Hamiltonian                  GFN2-xTB          :
         :: gradient norm              0.000699140780 Eh/a0 ::
         :: HOMO-LUMO gap              3.687196350213 eV    ::
         :: SCC energy               -23.719555297337 Eh    ::
         :: -> dispersion             -0.011997438363 Eh    ::
         :: -> Gsolv                  -0.008775899418 Eh    ::
         :: repulsion energy           0.342229953524 Eh    ::

    * Orbital Energies and Occupations

         #    Occupation            Energy/Eh            Energy/eV
      -------------------------------------------------------------
         1        2.0000           -1.0603948             -28.8548
       ...           ...                  ...                  ...
         9        2.0000           -0.5291261             -14.3983
        10        2.0000           -0.5138498             -13.9826
        11        2.0000           -0.5008903             -13.6299
        12        2.0000           -0.4884136             -13.2904
        13        2.0000           -0.4818923             -13.1130
        14        2.0000           -0.4811263             -13.0921
        15        2.0000           -0.4484949             -12.2042
        16        2.0000           -0.4431321             -12.0582
        17        2.0000           -0.4394467             -11.9580
        18        2.0000           -0.4289630             -11.6727
        19        2.0000           -0.4190580             -11.4031
        20        2.0000           -0.3969487             -10.8015
        21        2.0000           -0.3596032              -9.7853 (HOMO)
        22                         -0.2241012              -6.0981 (LUMO)
        23                         -0.2100086              -5.7146
        24                         -0.1412247              -3.8429
        25                         -0.0920612              -2.5051
        26                          0.0130595               0.3554
        27                          0.0157010               0.4272
        28                          0.0182522               0.4967
        29                          0.0315219               0.8578
        30                          0.0469292               1.2770
        31                          0.1282388               3.4896
        32                          0.1410962               3.8394
       ...                                ...                  ...
        43                          0.6594435              17.9444
      -------------------------------------------------------------
                  HL-Gap            0.1355020 Eh            3.6872 eV

     #   Z          covCN         q      C6AA      α(0)
     1   6 C        2.921    -0.054    29.334     8.882
     2   6 C        2.917    -0.039    28.970     8.826
     3   6 C        2.928    -0.069    29.725     8.941
     4   6 C        2.921     0.078    26.254     8.403
     5   6 C        2.894     0.062    26.619     8.459
     6   6 C        2.951    -0.045    29.120     8.851
     7   1 H        0.926     0.045     2.378     2.412
     8   7 N        2.641    -0.293    27.564     7.797
     9   1 H        0.860     0.215     1.032     1.591
    10   1 H        0.860     0.202     1.096     1.640
    11   1 H        0.926     0.053     2.278     2.360
    12   1 H        0.926     0.048     2.340     2.392
    13   1 H        0.926     0.043     2.404     2.425
    14  17 Cl       0.955    -0.247   106.991    15.825

Wiberg/Mayer (AO) data.
largest (>0.10) Wiberg bond orders for each atom

     #   Z sym  total        # sym  WBO       # sym  WBO       # sym  WBO
 ---------------------------------------------------------------------------
     1   6 C    3.988 --     6 C    1.425     2 C    1.418    13 H    0.970
     2   6 C    3.992 --     3 C    1.472     1 C    1.418    12 H    0.969
     3   6 C    3.984 --     2 C    1.472     4 C    1.321    11 H    0.966
                             6 C    0.102
     4   6 C    3.979 --     3 C    1.321     5 C    1.307     8 N    1.211
     5   6 C    3.879 --     6 C    1.435     4 C    1.307    14 Cl   0.919
     6   6 C    3.989 --     5 C    1.435     1 C    1.425     7 H    0.968
                             3 C    0.102
     7   1 H    0.997 --     6 C    0.968
     8   7 N    3.294 --     4 C    1.211    10 H    0.935     9 H    0.934
     9   1 H    0.953 --     8 N    0.934
    10   1 H    0.959 --     8 N    0.935
    11   1 H    0.997 --     3 C    0.966
    12   1 H    0.997 --     2 C    0.969
    13   1 H    0.998 --     1 C    0.970
    14  17 Cl   1.047 --     5 C    0.919
 ---------------------------------------------------------------------------

molecular dipole:
                 x           y           z       tot (Debye)
 q only:       -0.704       1.111       0.168
   full:       -0.432       0.935       0.288       2.719

 projected vibrational frequencies (cm⁻¹)
eigval :       -0.00    -0.00     0.00     0.00     0.00     0.00
eigval :      138.63   231.56   246.98   342.47   389.45   421.49
eigval :      432.36   452.28   510.49   533.59   654.07   659.71
eigval :      774.97   836.49   856.41   900.18   915.51   995.48
eigval :     1022.19  1090.98  1155.75  1175.38  1251.50  1306.79
eigval :     1331.31  1427.01  1439.12  1498.84  1559.45  1600.96
eigval :     3082.77  3088.02  3092.93  3106.93  3474.98  3537.89

   temp. (K)  partition function   enthalpy   heat capacity  entropy
                                   cal/mol     cal/K/mol   cal/K/mol   J/K/mol
 298.15  VIB   13.8                 2750.941     22.106     14.433
         ROT  0.403E+06              888.752      2.981     28.631
         INT  0.555E+07             3639.693     25.087     43.064
         TR   0.139E+28             1481.254      4.968     40.426
         TOT                        5120.9469    30.0547    83.4894   349.3198

       T/K    H(0)-H(T)+PV         H(T)/Eh          T*S/Eh         G(T)/Eh
   ------------------------------------------------------------------------
    298.15    0.816075E-02    0.111897E+00    0.396685E-01    0.722284E-01
   ------------------------------------------------------------------------

         :::::::::::::::::::::::::::::::::::::::::::::::::::::
         ::                  THERMODYNAMIC                  ::
         :::::::::::::::::::::::::::::::::::::::::::::::::::::
         :: total free energy         -23.305071457572 Eh   ::
         ::.................................................::
         :: total energy              -23.377299827582 Eh   ::
         :: zero point energy           0.103736145786 Eh   ::
         :: G(RRHO) w/o ZPVE           -0.031507775776 Eh   ::
         :: G(RRHO) contrib.            0.072228370010 Eh   ::
         :::::::::::::::::::::::::::::::::::::::::::::::::::::

           -------------------------------------------------
          | TOTAL ENERGY              -23.377299827582 Eh   |
          | TOTAL ENTHALPY            -23.265402933436 Eh   |
          | TOTAL FREE ENERGY         -23.305071457572 Eh   |
          | GRADIENT NORM               0.000700406721 Eh/α |
          | HOMO-LUMO GAP               3.687197682944 eV   |
           -------------------------------------------------

 * finished run on 2021/11/15 at 09:36:19.490
