   * xtb version 6.4.1 (afa7bdf) compiled by 'ehlert@majestix' on 2021-06-10
          program call               : xtb 12_3-chlorophenol.xyz --gfn2 --chrg 0 --uhf 0 --alpb water --ohess -P 1
          number of atoms            :                    13
          number of electrons        :                    42
          charge                     :                     0

   ID    Z sym.   atoms
    1    6 C      1-6
    2    8 O      7
    3    1 H      8-12
    4   17 Cl     13

        Solvent                        water
        Solvent mass                       1.8000E+01 g/mol
          :  Hamiltonian                  GFN2-xTB          :
 * total energy  :   -24.0144259 Eh     change       -0.9928094E-09 Eh
 * total energy  :   -24.0151068 Eh     change       -0.6809120E-03 Eh
 * total energy  :   -24.0152037 Eh     change       -0.9695641E-04 Eh
 * total energy  :   -24.0152245 Eh     change       -0.2072759E-04 Eh
 * total energy  :   -24.0152275 Eh     change       -0.3076532E-05 Eh
   *** GEOMETRY OPTIMIZATION CONVERGED AFTER 5 ITERATIONS ***

 final structure:
================
13
 xtb: 6.4.1 (afa7bdf)
C         0.55379620811320    1.40775780664541   -0.00019498746711
C        -0.77162335535372    1.80853891750923    0.00014509358056
C        -1.79534073316693    0.87891657659492    0.00046957261982
C        -1.50015286071988   -0.48122578282285    0.00053274914647
C        -0.16982576690014   -0.89738770154188    0.00017637434830
C         0.83282183766439    0.05163928396871   -0.00024158205487
O        -2.45655355324804   -1.43697974405687    0.00076456749874
H        -3.34234732137378   -1.04111123629675    0.00104197363644
H        -1.00659832643858    2.86086578862608    0.00012426421575
H        -2.82281702474925    1.20959230615247    0.00064032832816
H         1.35420230518832    2.12856940676410   -0.00033674532214
H         0.05203716386929   -1.95186012360174    0.00026881334052
Cl        2.49064742711512   -0.47940449794084   -0.00016542187062

          :  Hamiltonian                  GFN2-xTB          :
         :: gradient norm              0.000798105299 Eh/a0 ::
         :: HOMO-LUMO gap              4.230352300887 eV    ::
         :: SCC energy               -24.327242825539 Eh    ::
         :: -> dispersion             -0.010775735563 Eh    ::
         :: -> Gsolv                  -0.012438524174 Eh    ::
         :: repulsion energy           0.311998981233 Eh    ::

    * Orbital Energies and Occupations

         #    Occupation            Energy/Eh            Energy/eV
      -------------------------------------------------------------
         1        2.0000           -1.0631471             -28.9297
       ...           ...                  ...                  ...
         9        2.0000           -0.5424930             -14.7620
        10        2.0000           -0.5300391             -14.4231
        11        2.0000           -0.5221278             -14.2078
        12        2.0000           -0.5022326             -13.6664
        13        2.0000           -0.4924101             -13.3992
        14        2.0000           -0.4868709             -13.2484
        15        2.0000           -0.4866140             -13.2414
        16        2.0000           -0.4503778             -12.2554
        17        2.0000           -0.4435878             -12.0706
        18        2.0000           -0.4375137             -11.9054
        19        2.0000           -0.4235573             -11.5256
        20        2.0000           -0.4042777             -11.0010
        21        2.0000           -0.3903589             -10.6222 (HOMO)
        22                         -0.2348963              -6.3919 (LUMO)
        23                         -0.2243101              -6.1038
        24                         -0.1422910              -3.8719
        25                         -0.1022165              -2.7815
        26                          0.0107529               0.2926
        27                          0.0154016               0.4191
        28                          0.0154802               0.4212
        29                          0.0283618               0.7718
        30                          0.0785666               2.1379
        31                          0.1189967               3.2381
        32                          0.1454453               3.9578
       ...                                ...                  ...
        42                          0.6524852              17.7550
      -------------------------------------------------------------
                  HL-Gap            0.1554626 Eh            4.2304 eV

     #   Z          covCN         q      C6AA      α(0)
     1   6 C        2.950    -0.057    29.419     8.896
     2   6 C        2.924    -0.033    28.823     8.804
     3   6 C        2.917    -0.079    29.972     8.977
     4   6 C        2.848     0.155    24.646     8.137
     5   6 C        2.956    -0.071    29.766     8.949
     6   6 C        2.891     0.099    25.801     8.328
     7   8 O        1.660    -0.441    21.669     6.284
     8   1 H        0.804     0.385     0.514     1.126
     9   1 H        0.926     0.068     2.102     2.267
    10   1 H        0.926     0.066     2.130     2.282
    11   1 H        0.926     0.064     2.157     2.296
    12   1 H        0.926     0.069     2.093     2.262
    13  17 Cl       0.965    -0.224   106.249    15.770

Wiberg/Mayer (AO) data.
largest (>0.10) Wiberg bond orders for each atom

     #   Z sym  total        # sym  WBO       # sym  WBO       # sym  WBO
 ---------------------------------------------------------------------------
     1   6 C    3.985 --     2 C    1.431     6 C    1.401    11 H    0.967
     2   6 C    3.989 --     3 C    1.450     1 C    1.431     9 H    0.967
                             5 C    0.105
     3   6 C    3.985 --     2 C    1.450     4 C    1.364    10 H    0.964
     4   6 C    3.945 --     3 C    1.364     5 C    1.356     7 O    1.096
     5   6 C    3.984 --     6 C    1.428     4 C    1.356    12 H    0.965
                             2 C    0.105
     6   6 C    3.900 --     5 C    1.428     1 C    1.401    13 Cl   0.942
     7   8 O    2.098 --     4 C    1.096     8 H    0.832
     8   1 H    0.851 --     7 O    0.832
     9   1 H    0.995 --     2 C    0.967
    10   1 H    0.995 --     3 C    0.964
    11   1 H    0.996 --     1 C    0.967
    12   1 H    0.995 --     5 C    0.965
    13  17 Cl   1.065 --     6 C    0.942
 ---------------------------------------------------------------------------

molecular dipole:
                 x           y           z       tot (Debye)
 q only:       -1.752       0.760       0.000
   full:       -1.576       0.760       0.000       4.446

 projected vibrational frequencies (cm⁻¹)
eigval :       -0.00     0.00     0.00     0.00     0.00     0.00
eigval :      173.88   221.58   230.80   378.35   408.73   416.56
eigval :      426.42   503.48   550.87   647.95   663.84   784.52
eigval :      865.65   873.22   876.12   915.98   983.23  1090.10
eigval :     1112.33  1124.09  1177.46  1230.77  1269.32  1329.95
eigval :     1428.95  1457.76  1572.51  1594.05  3089.36  3103.90
eigval :     3118.60  3120.61  3438.83

   temp. (K)  partition function   enthalpy   heat capacity  entropy
                                   cal/mol     cal/K/mol   cal/K/mol   J/K/mol
 298.15  VIB   10.6                 2528.693     20.491     13.166
         ROT  0.451E+06              888.752      2.981     28.855
         INT  0.477E+07             3417.445     23.472     42.022
         TR   0.141E+28             1481.254      4.968     40.448
         TOT                        4898.6992    28.4404    82.4703   345.0557

       T/K    H(0)-H(T)+PV         H(T)/Eh          T*S/Eh         G(T)/Eh
   ------------------------------------------------------------------------
    298.15    0.780657E-02    0.993429E-01    0.391843E-01    0.601586E-01
   ------------------------------------------------------------------------

         :::::::::::::::::::::::::::::::::::::::::::::::::::::
         ::                  THERMODYNAMIC                  ::
         :::::::::::::::::::::::::::::::::::::::::::::::::::::
         :: total free energy         -23.955068963072 Eh   ::
         ::.................................................::
         :: total energy              -24.015227546258 Eh   ::
         :: zero point energy           0.091536306274 Eh   ::
         :: G(RRHO) w/o ZPVE           -0.031377723088 Eh   ::
         :: G(RRHO) contrib.            0.060158583186 Eh   ::
         :::::::::::::::::::::::::::::::::::::::::::::::::::::

           -------------------------------------------------
          | TOTAL ENERGY              -24.015227546258 Eh   |
          | TOTAL ENTHALPY            -23.915884665966 Eh   |
          | TOTAL FREE ENERGY         -23.955068963072 Eh   |
          | GRADIENT NORM               0.000798048187 Eh/α |
          | HOMO-LUMO GAP               4.230352404951 eV   |
           -------------------------------------------------

 * finished run on 2021/11/15 at 09:36:13.159
