   * xtb version 6.4.1 (afa7bdf) compiled by 'ehlert@majestix' on 2021-06-10
          program call               : xtb 11_triclosan.xyz --gfn2 --chrg 0 --uhf 0 --alpb water --ohess -P 1
          number of atoms            :                    24
          number of electrons        :                    88
          charge                     :                     0

   ID    Z sym.   atoms
    1    6 C      1-6, 13-17, 19
    2    1 H      7-9, 18, 20, 21, 23
    3    8 O      10, 22
    4   17 Cl     11, 12, 24

        Solvent                        water
        Solvent mass                       1.8000E+01 g/mol
          :  Hamiltonian                  GFN2-xTB          :
 * total energy  :   -51.0676381 Eh     change       -0.5077588E-08 Eh
 * total energy  :   -51.0687385 Eh     change       -0.1100416E-02 Eh
 * total energy  :   -51.0690467 Eh     change       -0.3081391E-03 Eh
 * total energy  :   -51.0691334 Eh     change       -0.8676252E-04 Eh
 * total energy  :   -51.0692117 Eh     change       -0.7832536E-04 Eh
 * total energy  :   -51.0692810 Eh     change       -0.6924106E-04 Eh
 * total energy  :   -51.0693747 Eh     change       -0.9371654E-04 Eh
 * total energy  :   -51.0695055 Eh     change       -0.1307888E-03 Eh
 * total energy  :   -51.0696460 Eh     change       -0.1404897E-03 Eh
 * total energy  :   -51.0697715 Eh     change       -0.1255240E-03 Eh
 * total energy  :   -51.0701051 Eh     change       -0.5237142E-04 Eh
 * total energy  :   -51.0701352 Eh     change       -0.3013531E-04 Eh
 * total energy  :   -51.0701633 Eh     change       -0.2806853E-04 Eh
 * total energy  :   -51.0701820 Eh     change       -0.1870890E-04 Eh
 * total energy  :   -51.0701987 Eh     change       -0.1669346E-04 Eh
 * total energy  :   -51.0702141 Eh     change       -0.1542441E-04 Eh
 * total energy  :   -51.0702219 Eh     change       -0.7789695E-05 Eh
 * total energy  :   -51.0702275 Eh     change       -0.5596952E-05 Eh
 * total energy  :   -51.0702287 Eh     change       -0.1228602E-05 Eh
   *** GEOMETRY OPTIMIZATION CONVERGED AFTER 22 ITERATIONS ***

 final structure:
================
24
 xtb: 6.4.1 (afa7bdf)
C        -2.19089918561846   -1.71947573791368    0.10700663120174
C        -3.35804075653003   -1.02154391533529   -0.15160600176554
C        -3.38262782508355    0.36384492042969   -0.13611713620135
C        -2.21157127104034    1.04739953822066    0.13100449233861
C        -1.01739021508241    0.36849840355227    0.38839848991478
C        -1.02924509931993   -1.02283777964445    0.38169110301346
H        -4.29227197671961    0.90593089434383   -0.33280126378484
H        -0.11869627850193   -1.55821087695878    0.59982064158148
H        -2.18901025992198   -2.79655034109551    0.10001712299358
O         0.07749729258445    1.11583345229565    0.69385903353045
Cl       -4.82194457045360   -1.88549594277171   -0.49413173187953
Cl       -2.20955540375428    2.77776483728340    0.15509619990371
C         1.33801090076980    0.60359597641412    0.46519325075364
C         1.68553485090174    0.01097035119749   -0.76092366307138
C         2.29730930924979    0.77788831218225    1.44947702640954
C         2.99505759520309   -0.41273604549369   -0.95170072239076
C         3.60299011231917    0.36376572675518    1.25175852466702
H         2.00297171235777    1.25074123548724    2.37175983870797
C         3.93423557361363   -0.23382243998500    0.04968553323071
H         3.28531340844693   -0.86986163522616   -1.88429294190092
H         4.34460401014122    0.50156116717828    2.01972526114062
O         0.73402214397683   -0.12229586637602   -1.71107937108924
H         1.09814388809042   -0.52190944926197   -2.51683386597846
Cl        5.56504904437116   -0.76934478527810   -0.22404445132511

          :  Hamiltonian                  GFN2-xTB          :
         :: gradient norm              0.000311574324 Eh/a0 ::
         :: HOMO-LUMO gap              3.643549324278 eV    ::
         :: SCC energy               -51.653704711001 Eh    ::
         :: -> dispersion             -0.029542887839 Eh    ::
         :: -> Gsolv                  -0.017819869818 Eh    ::
         :: repulsion energy           0.583461335987 Eh    ::

    * Orbital Energies and Occupations

         #    Occupation            Energy/Eh            Energy/eV
      -------------------------------------------------------------
         1        2.0000           -1.0655493             -28.9951
       ...           ...                  ...                  ...
        32        2.0000           -0.4702071             -12.7950
        33        2.0000           -0.4659154             -12.6782
        34        2.0000           -0.4565838             -12.4243
        35        2.0000           -0.4528401             -12.3224
        36        2.0000           -0.4438290             -12.0772
        37        2.0000           -0.4365262             -11.8785
        38        2.0000           -0.4282358             -11.6529
        39        2.0000           -0.4279888             -11.6462
        40        2.0000           -0.4253583             -11.5746
        41        2.0000           -0.4148982             -11.2900
        42        2.0000           -0.4117688             -11.2048
        43        2.0000           -0.4009482             -10.9104
        44        2.0000           -0.3835164             -10.4360 (HOMO)
        45                         -0.2496185              -6.7925 (LUMO)
        46                         -0.2485859              -6.7644
        47                         -0.2368397              -6.4447
        48                         -0.2313410              -6.2951
        49                         -0.1598875              -4.3508
        50                         -0.1464740              -3.9858
        51                         -0.1330997              -3.6218
        52                         -0.1225555              -3.3349
        53                         -0.1110486              -3.0218
        54                          0.0049681               0.1352
        55                          0.0062404               0.1698
       ...                                ...                  ...
        90                          0.6391617              17.3925
      -------------------------------------------------------------
                  HL-Gap            0.1338979 Eh            3.6435 eV

     #   Z          covCN         q      C6AA      α(0)
     1   6 C        2.950    -0.046    29.150     8.855
     2   6 C        2.891     0.097    25.849     8.336
     3   6 C        2.989    -0.054    29.333     8.884
     4   6 C        2.891     0.081    26.189     8.390
     5   6 C        2.902     0.146    24.822     8.169
     6   6 C        2.923    -0.052    29.298     8.876
     7   1 H        0.926     0.097     1.814     2.106
     8   1 H        0.926     0.084     1.939     2.178
     9   1 H        0.926     0.096     1.825     2.112
    10   8 O        1.708    -0.244    18.037     5.734
    11  17 Cl       0.965    -0.191   105.150    15.688
    12  17 Cl       0.965    -0.175   104.661    15.651
    13   6 C        2.869     0.115    25.472     8.273
    14   6 C        2.843     0.137    24.996     8.194
    15   6 C        2.922    -0.054    29.340     8.883
    16   6 C        2.955    -0.087    30.171     9.009
    17   6 C        2.950    -0.055    29.370     8.889
    18   1 H        0.926     0.088     1.899     2.155
    19   6 C        2.889     0.096    25.858     8.337
    20   1 H        0.926     0.085     1.926     2.170
    21   1 H        0.926     0.081     1.965     2.192
    22   8 O        1.659    -0.430    21.435     6.250
    23   1 H        0.804     0.390     0.502     1.113
    24  17 Cl       0.964    -0.206   105.650    15.725

Wiberg/Mayer (AO) data.
largest (>0.10) Wiberg bond orders for each atom

     #   Z sym  total        # sym  WBO       # sym  WBO       # sym  WBO
 ---------------------------------------------------------------------------
     1   6 C    3.983 --     6 C    1.445     2 C    1.400     9 H    0.961
     2   6 C    3.909 --     1 C    1.400     3 C    1.397    11 Cl   0.962
     3   6 C    3.982 --     4 C    1.421     2 C    1.397     7 H    0.960
                             6 C    0.101
     4   6 C    3.911 --     3 C    1.421     5 C    1.326    12 Cl   0.971
     5   6 C    3.939 --     6 C    1.366     4 C    1.326    10 O    1.052
     6   6 C    3.984 --     1 C    1.445     5 C    1.366     8 H    0.960
                             3 C    0.101
     7   1 H    0.990 --     3 C    0.960
     8   1 H    0.993 --     6 C    0.960
     9   1 H    0.990 --     1 C    0.961
    10   8 O    2.297 --     5 C    1.052    13 C    1.000
    11  17 Cl   1.086 --     2 C    0.962
    12  17 Cl   1.104 --     4 C    0.971
    13   6 C    3.924 --    15 C    1.405    14 C    1.296    10 O    1.000
    14   6 C    3.950 --    16 C    1.378    13 C    1.296    22 O    1.102
    15   6 C    3.982 --    17 C    1.427    13 C    1.405    18 H    0.962
    16   6 C    3.978 --    19 C    1.403    14 C    1.378    20 H    0.959
    17   6 C    3.984 --    15 C    1.427    19 C    1.408    21 H    0.964
    18   1 H    0.992 --    15 C    0.962
    19   6 C    3.904 --    17 C    1.408    16 C    1.403    24 Cl   0.955
    20   1 H    0.993 --    16 C    0.959
    21   1 H    0.993 --    17 C    0.964
    22   8 O    2.109 --    14 C    1.102    23 H    0.826
    23   1 H    0.847 --    22 O    0.826
    24  17 Cl   1.079 --    19 C    0.955
 ---------------------------------------------------------------------------

molecular dipole:
                 x           y           z       tot (Debye)
 q only:        0.559      -0.853      -0.263
   full:        0.811      -0.850      -0.415       3.168

 projected vibrational frequencies (cm⁻¹)
eigval :       -0.00    -0.00     0.00     0.00     0.00     0.00
eigval :       25.74    31.72    44.33   102.31   122.73   143.39
eigval :      165.90   201.84   208.84   225.67   256.31   303.78
eigval :      344.86   361.43   364.24   383.26   416.05   420.97
eigval :      445.84   455.40   501.22   528.46   549.46   558.85
eigval :      627.05   636.95   655.90   674.90   731.68   788.49
eigval :      820.57   826.42   849.58   855.92   866.17   882.22
eigval :      900.57   902.08  1020.70  1070.76  1097.46  1099.45
eigval :     1120.00  1147.18  1172.72  1214.61  1230.91  1242.20
eigval :     1277.43  1312.98  1327.93  1386.44  1406.56  1432.27
eigval :     1467.75  1554.64  1563.05  1568.88  1581.60  3105.19
eigval :     3105.46  3118.12  3123.02  3124.50  3129.06  3434.56

   temp. (K)  partition function   enthalpy   heat capacity  entropy
                                   cal/mol     cal/K/mol   cal/K/mol   J/K/mol
 298.15  VIB  0.344E+06             7929.666     52.142     47.739
         ROT  0.706E+07              888.752      2.981     34.319
         INT  0.243E+13             8818.418     55.123     82.058
         TR   0.477E+28             1481.254      4.968     42.868
         TOT                       10299.6720    60.0909   124.9258   522.6896

       T/K    H(0)-H(T)+PV         H(T)/Eh          T*S/Eh         G(T)/Eh
   ------------------------------------------------------------------------
    298.15    0.164136E-01    0.170455E+00    0.593563E-01    0.111099E+00
   ------------------------------------------------------------------------

         :::::::::::::::::::::::::::::::::::::::::::::::::::::
         ::                  THERMODYNAMIC                  ::
         :::::::::::::::::::::::::::::::::::::::::::::::::::::
         :: total free energy         -50.959129691802 Eh   ::
         ::.................................................::
         :: total energy              -51.070228707740 Eh   ::
         :: zero point energy           0.154041723612 Eh   ::
         :: G(RRHO) w/o ZPVE           -0.042942707673 Eh   ::
         :: G(RRHO) contrib.            0.111099015938 Eh   ::
         :::::::::::::::::::::::::::::::::::::::::::::::::::::

           -------------------------------------------------
          | TOTAL ENERGY              -51.070228707740 Eh   |
          | TOTAL ENTHALPY            -50.899773411995 Eh   |
          | TOTAL FREE ENERGY         -50.959129691802 Eh   |
          | GRADIENT NORM               0.000315498790 Eh/α |
          | HOMO-LUMO GAP               3.643546948590 eV   |
           -------------------------------------------------

 * finished run on 2021/11/15 at 09:36:16.201
