   * xtb version 6.4.1 (afa7bdf) compiled by 'ehlert@majestix' on 2021-06-10
          program call               : xtb 31_n-methylaniline.xyz --gfn2 --chrg 0 --uhf 0 --alpb water --ohess -P 1
          number of atoms            :                    17
          number of electrons        :                    42
          charge                     :                     0

   ID    Z sym.   atoms
    1    6 C      1-6, 14
    2    1 H      7-11, 13, 15-17
    3    7 N      12

        Solvent                        water
        Solvent mass                       1.8000E+01 g/mol
          :  Hamiltonian                  GFN2-xTB          :
 * total energy  :   -22.4839109 Eh     change       -0.8664003E-10 Eh
 * total energy  :   -22.4848576 Eh     change       -0.9467808E-03 Eh
 * total energy  :   -22.4849476 Eh     change       -0.8990820E-04 Eh
 * total energy  :   -22.4849945 Eh     change       -0.4697423E-04 Eh
 * total energy  :   -22.4850323 Eh     change       -0.3773066E-04 Eh
 * total energy  :   -22.4850451 Eh     change       -0.1280849E-04 Eh
 * total energy  :   -22.4850495 Eh     change       -0.4442978E-05 Eh
   *** GEOMETRY OPTIMIZATION CONVERGED AFTER 7 ITERATIONS ***

 final structure:
================
17
 xtb: 6.4.1 (afa7bdf)
C         1.35870449015318    1.34362692908527    0.01607477674013
C         0.00619182231748    1.06184052220669    0.04318658253368
C        -0.44282224644512   -0.26266375485681    0.03100971311058
C         0.51560187587218   -1.28354434241690   -0.01564162327226
C         1.86245102522595   -0.99069519180295   -0.04268861396404
C         2.29665632201062    0.32620511267161   -0.02753622750526
H         1.68417376927499    2.37431640198567    0.02587252843378
H        -0.70233190217065    1.87411455937150    0.07469423045305
H         0.18638414803195   -2.31337924241340   -0.02917937507119
H         2.58265129508517   -1.79566715440113   -0.08065339708823
H         3.35160785177499    0.55453688876042   -0.05164566245511
N        -1.77217722657550   -0.59240285901577    0.11786275390639
H        -1.98498712053031   -1.54438727796420   -0.13389897577476
C        -2.82658697872170    0.36274964635981   -0.12966302812358
H        -2.74943541611179    0.82296731263567   -1.12199028739617
H        -3.78273958081005   -0.14765581434223   -0.05188882950810
H        -2.79702312838138    1.15195426413675    0.62267043498110

          :  Hamiltonian                  GFN2-xTB          :
         :: gradient norm              0.000681238973 Eh/a0 ::
         :: HOMO-LUMO gap              3.688228145019 eV    ::
         :: SCC energy               -22.880654915034 Eh    ::
         :: -> dispersion             -0.012582979226 Eh    ::
         :: -> Gsolv                  -0.004523193795 Eh    ::
         :: repulsion energy           0.395587926430 Eh    ::

    * Orbital Energies and Occupations

         #    Occupation            Energy/Eh            Energy/eV
      -------------------------------------------------------------
         1        2.0000           -0.6436622             -17.5149
       ...           ...                  ...                  ...
         9        2.0000           -0.5199046             -14.1473
        10        2.0000           -0.5062000             -13.7744
        11        2.0000           -0.4998189             -13.6008
        12        2.0000           -0.4819074             -13.1134
        13        2.0000           -0.4713497             -12.8261
        14        2.0000           -0.4671615             -12.7121
        15        2.0000           -0.4662136             -12.6863
        16        2.0000           -0.4539337             -12.3522
        17        2.0000           -0.4253825             -11.5752
        18        2.0000           -0.4176264             -11.3642
        19        2.0000           -0.4112151             -11.1897
        20        2.0000           -0.3927028             -10.6860
        21        2.0000           -0.3457611              -9.4086 (HOMO)
        22                         -0.2102212              -5.7204 (LUMO)
        23                         -0.1976726              -5.3789
        24                         -0.0762122              -2.0738
        25                          0.0328802               0.8947
        26                          0.1180679               3.2128
        27                          0.1367840               3.7221
        28                          0.1440498               3.9198
        29                          0.1619342               4.4065
        30                          0.1799796               4.8975
        31                          0.1957935               5.3278
        32                          0.2086055               5.6764
       ...                                ...                  ...
        41                          0.6802216              18.5098
      -------------------------------------------------------------
                  HL-Gap            0.1355398 Eh            3.6882 eV

     #   Z          covCN         q      C6AA      α(0)
     1   6 C        2.919    -0.038    28.957     8.824
     2   6 C        2.922    -0.068    29.690     8.936
     3   6 C        2.903     0.068    26.472     8.436
     4   6 C        2.926    -0.071    29.758     8.946
     5   6 C        2.918    -0.038    28.934     8.821
     6   6 C        2.918    -0.056    29.398     8.891
     7   1 H        0.926     0.022     2.709     2.574
     8   1 H        0.926     0.030     2.589     2.516
     9   1 H        0.925     0.022     2.710     2.574
    10   1 H        0.926     0.022     2.706     2.573
    11   1 H        0.926     0.016     2.790     2.612
    12   7 N        2.688    -0.200    25.344     7.477
    13   1 H        0.860     0.181     1.207     1.721
    14   6 C        3.687    -0.047    21.615     6.655
    15   1 H        0.924     0.039     2.464     2.455
    16   1 H        0.925     0.062     2.175     2.306
    17   1 H        0.924     0.056     2.245     2.343

Wiberg/Mayer (AO) data.
largest (>0.10) Wiberg bond orders for each atom

     #   Z sym  total        # sym  WBO       # sym  WBO       # sym  WBO
 ---------------------------------------------------------------------------
     1   6 C    3.993 --     2 C    1.459     6 C    1.431     7 H    0.972
                             4 C    0.103
     2   6 C    3.987 --     1 C    1.459     3 C    1.338     8 H    0.968
                             5 C    0.100
     3   6 C    3.975 --     2 C    1.338     4 C    1.328    12 N    1.175
     4   6 C    3.986 --     5 C    1.475     3 C    1.328     9 H    0.968
                             1 C    0.103
     5   6 C    3.993 --     4 C    1.475     6 C    1.416    10 H    0.971
                             2 C    0.100
     6   6 C    3.990 --     1 C    1.431     5 C    1.416    11 H    0.972
     7   1 H    0.999 --     1 C    0.972
     8   1 H    0.999 --     2 C    0.968
     9   1 H    1.000 --     4 C    0.968
    10   1 H    0.999 --     5 C    0.971
    11   1 H    1.000 --     6 C    0.972
    12   7 N    3.334 --     3 C    1.175    14 C    1.014    13 H    0.939
    13   1 H    0.967 --    12 N    0.939
    14   6 C    3.975 --    12 N    1.014    16 H    0.984    17 H    0.978
                            15 H    0.975
    15   1 H    0.998 --    14 C    0.975
    16   1 H    0.996 --    14 C    0.984
    17   1 H    0.997 --    14 C    0.978
 ---------------------------------------------------------------------------

molecular dipole:
                 x           y           z       tot (Debye)
 q only:       -1.057      -0.181      -0.097
   full:       -1.034      -0.238      -0.241       2.765

 projected vibrational frequencies (cm⁻¹)
eigval :       -0.00    -0.00    -0.00     0.00     0.00     0.00
eigval :       98.25   150.06   222.57   236.67   372.79   401.25
eigval :      452.03   479.50   557.62   590.34   654.19   747.22
eigval :      808.53   851.39   861.24   917.46   920.72   974.44
eigval :     1075.68  1091.00  1100.99  1115.71  1160.65  1181.04
eigval :     1202.51  1260.47  1299.44  1341.81  1381.59  1412.05
eigval :     1453.67  1470.39  1494.80  1498.82  1577.64  1607.19
eigval :     2904.41  2990.59  3043.44  3053.69  3059.46  3065.36
eigval :     3081.83  3100.73  3460.98

   temp. (K)  partition function   enthalpy   heat capacity  entropy
                                   cal/mol     cal/K/mol   cal/K/mol   J/K/mol
 298.15  VIB   27.9                 2958.579     22.926     16.499
         ROT  0.287E+06              888.752      2.981     27.953
         INT  0.800E+07             3847.331     25.906     44.452
         TR   0.107E+28             1481.254      4.968     39.906
         TOT                        5328.5849    30.8746    84.3575   352.9518

       T/K    H(0)-H(T)+PV         H(T)/Eh          T*S/Eh         G(T)/Eh
   ------------------------------------------------------------------------
    298.15    0.849164E-02    0.149242E+00    0.400810E-01    0.109161E+00
   ------------------------------------------------------------------------

         :::::::::::::::::::::::::::::::::::::::::::::::::::::
         ::                  THERMODYNAMIC                  ::
         :::::::::::::::::::::::::::::::::::::::::::::::::::::
         :: total free energy         -22.375888585376 Eh   ::
         ::.................................................::
         :: total energy              -22.485049514626 Eh   ::
         :: zero point energy           0.140750265464 Eh   ::
         :: G(RRHO) w/o ZPVE           -0.031589336214 Eh   ::
         :: G(RRHO) contrib.            0.109160929250 Eh   ::
         :::::::::::::::::::::::::::::::::::::::::::::::::::::

           -------------------------------------------------
          | TOTAL ENERGY              -22.485049514626 Eh   |
          | TOTAL ENTHALPY            -22.335807608628 Eh   |
          | TOTAL FREE ENERGY         -22.375888585376 Eh   |
          | GRADIENT NORM               0.000681025561 Eh/α |
          | HOMO-LUMO GAP               3.688226763832 eV   |
           -------------------------------------------------

 * finished run on 2021/11/15 at 09:36:20.953
