   * xtb version 6.4.1 (afa7bdf) compiled by 'ehlert@majestix' on 2021-06-10
          program call               : xtb 36_1,4-dimethoxybenzene.xyz --gfn2 --chrg 0 --uhf 0 --alpb water --ohess -P 1
          number of atoms            :                    20
          number of electrons        :                    54
          charge                     :                     0

   ID    Z sym.   atoms
    1    6 C      1-6, 10, 16
    2    1 H      7, 8, 11-14, 17-20
    3    8 O      9, 15

        Solvent                        water
        Solvent mass                       1.8000E+01 g/mol
          :  Hamiltonian                  GFN2-xTB          :
 * total energy  :   -30.3482339 Eh     change       -0.1022329E-09 Eh
 * total energy  :   -30.3489543 Eh     change       -0.7204131E-03 Eh
 * total energy  :   -30.3490033 Eh     change       -0.4903776E-04 Eh
 * total energy  :   -30.3490092 Eh     change       -0.5854626E-05 Eh
 * total energy  :   -30.3490098 Eh     change       -0.6590424E-06 Eh
   *** GEOMETRY OPTIMIZATION CONVERGED AFTER 5 ITERATIONS ***

 final structure:
================
20
 xtb: 6.4.1 (afa7bdf)
C        -0.92581590927137   -1.03638455491896    0.00000023483420
C        -1.36845447116893    0.28231100169361    0.00000032486729
C        -0.42853271785257    1.30910009518779   -0.00000004199778
C         0.92581600685615    1.03638455828814   -0.00000034288254
C         1.36845456837044   -0.28231099835491   -0.00000032534711
C         0.42853281536461   -1.30910009185823   -0.00000002073626
H         0.78183825509741   -2.32791182344601    0.00000007324842
H        -1.62172146148584   -1.85911450772419    0.00000040837554
O        -2.68128812091466    0.67113850731630    0.00000072236246
C        -3.67995206536245   -0.33026467153678    0.00000039587991
H        -3.61350468353047   -0.95535960136031    0.89449428110211
H        -4.62467544425822    0.20876724492551    0.00000059598650
H        -3.61350471175222   -0.95535895985070   -0.89449395015447
H        -0.78183815695536    2.32791182709681    0.00000006714050
O         2.68128821802198   -0.67113850664392   -0.00000033494543
C         3.67995216764385    0.33026466851558    0.00000003941715
H         4.62467554453884   -0.20876725248425    0.00000015382054
H         3.61350499099964    0.95535942716422   -0.89449398764392
H         3.61350461617913    0.95535912718945    0.89449424903022
H         1.62172155948006    1.85911451080086   -0.00000054235733

          :  Hamiltonian                  GFN2-xTB          :
         :: gradient norm              0.000170573999 Eh/a0 ::
         :: HOMO-LUMO gap              3.802113544377 eV    ::
         :: SCC energy               -30.761183492955 Eh    ::
         :: -> dispersion             -0.015023764958 Eh    ::
         :: -> Gsolv                  -0.005375027159 Eh    ::
         :: repulsion energy           0.412203003569 Eh    ::

    * Orbital Energies and Occupations

         #    Occupation            Energy/Eh            Energy/eV
      -------------------------------------------------------------
         1        2.0000           -0.7145460             -19.4438
       ...           ...                  ...                  ...
        15        2.0000           -0.5210976             -14.1798
        16        2.0000           -0.4981869             -13.5564
        17        2.0000           -0.4849019             -13.1949
        18        2.0000           -0.4807487             -13.0818
        19        2.0000           -0.4764133             -12.9639
        20        2.0000           -0.4737874             -12.8924
        21        2.0000           -0.4631123             -12.6019
        22        2.0000           -0.4539042             -12.3514
        23        2.0000           -0.4525344             -12.3141
        24        2.0000           -0.4250758             -11.5669
        25        2.0000           -0.4192346             -11.4080
        26        2.0000           -0.4071205             -11.0783
        27        2.0000           -0.3653029              -9.9404 (HOMO)
        28                         -0.2255778              -6.1383 (LUMO)
        29                         -0.2062429              -5.6122
        30                         -0.0871479              -2.3714
        31                          0.0192962               0.5251
        32                          0.0351422               0.9563
        33                          0.1149100               3.1269
        34                          0.1149171               3.1271
        35                          0.1292592               3.5173
        36                          0.1345947               3.6625
        37                          0.1669023               4.5416
        38                          0.1737285               4.7274
       ...                                ...                  ...
        50                          0.6633646              18.0511
      -------------------------------------------------------------
                  HL-Gap            0.1397251 Eh            3.8021 eV

     #   Z          covCN         q      C6AA      α(0)
     1   6 C        2.917    -0.070    29.746     8.944
     2   6 C        2.862     0.130    25.160     8.222
     3   6 C        2.922    -0.064    29.593     8.921
     4   6 C        2.917    -0.070    29.746     8.944
     5   6 C        2.862     0.130    25.160     8.222
     6   6 C        2.922    -0.064    29.593     8.921
     7   1 H        0.926     0.054     2.266     2.354
     8   1 H        0.926     0.053     2.286     2.365
     9   8 O        1.704    -0.309    19.142     5.907
    10   6 C        3.641     0.022    20.553     6.519
    11   1 H        0.924     0.052     2.291     2.367
    12   1 H        0.925     0.079     1.989     2.205
    13   1 H        0.924     0.052     2.291     2.367
    14   1 H        0.926     0.054     2.266     2.354
    15   8 O        1.704    -0.309    19.142     5.907
    16   6 C        3.641     0.022    20.553     6.519
    17   1 H        0.925     0.079     1.989     2.205
    18   1 H        0.924     0.052     2.291     2.367
    19   1 H        0.924     0.052     2.291     2.367
    20   1 H        0.926     0.053     2.286     2.365

Wiberg/Mayer (AO) data.
largest (>0.10) Wiberg bond orders for each atom

     #   Z sym  total        # sym  WBO       # sym  WBO       # sym  WBO
 ---------------------------------------------------------------------------
     1   6 C    3.987 --     6 C    1.456     2 C    1.367     8 H    0.965
                             4 C    0.100
     2   6 C    3.934 --     1 C    1.367     3 C    1.363     9 O    1.045
     3   6 C    3.988 --     4 C    1.456     2 C    1.363    14 H    0.968
                             6 C    0.111
     4   6 C    3.987 --     3 C    1.456     5 C    1.367    20 H    0.965
                             1 C    0.100
     5   6 C    3.934 --     4 C    1.367     6 C    1.363    15 O    1.045
     6   6 C    3.988 --     1 C    1.456     5 C    1.363     7 H    0.968
                             3 C    0.111
     7   1 H    0.997 --     6 C    0.968
     8   1 H    0.997 --     1 C    0.965
     9   8 O    2.190 --     2 C    1.045    10 C    0.973
    10   6 C    3.933 --    12 H    0.978    13 H    0.977    11 H    0.977
                             9 O    0.973
    11   1 H    0.997 --    10 C    0.977
    12   1 H    0.993 --    10 C    0.978
    13   1 H    0.997 --    10 C    0.977
    14   1 H    0.997 --     3 C    0.968
    15   8 O    2.190 --     5 C    1.045    16 C    0.973
    16   6 C    3.933 --    17 H    0.978    19 H    0.977    18 H    0.977
                            15 O    0.973
    17   1 H    0.993 --    16 C    0.978
    18   1 H    0.997 --    16 C    0.977
    19   1 H    0.997 --    16 C    0.977
    20   1 H    0.997 --     4 C    0.965
 ---------------------------------------------------------------------------

molecular dipole:
                 x           y           z       tot (Debye)
 q only:       -0.000      -0.000      -0.000
   full:        0.000      -0.000      -0.000       0.000

 projected vibrational frequencies (cm⁻¹)
eigval :       -0.00    -0.00     0.00     0.00     0.00     0.00
eigval :       61.78   101.17   150.67   189.16   231.82   242.29
eigval :      259.33   372.21   379.51   388.95   444.27   500.09
eigval :      525.19   613.80   664.27   708.49   795.98   840.32
eigval :      850.03   888.05   904.23   993.15  1045.44  1049.84
eigval :     1115.72  1115.85  1117.37  1146.18  1159.50  1178.86
eigval :     1180.64  1266.05  1275.39  1329.24  1388.51  1390.04
eigval :     1416.80  1459.94  1459.99  1468.83  1472.87  1477.88
eigval :     1577.34  1612.88  2940.69  2940.72  2953.73  2954.12
eigval :     3033.07  3033.22  3101.54  3102.99  3114.08  3116.80

   temp. (K)  partition function   enthalpy   heat capacity  entropy
                                   cal/mol     cal/K/mol   cal/K/mol   J/K/mol
 298.15  VIB   294.                 4381.812     30.949     25.635
         ROT  0.314E+06              888.752      2.981     28.132
         INT  0.921E+08             5270.565     33.930     53.767
         TR   0.157E+28             1481.254      4.968     40.663
         TOT                        6751.8187    38.8981    94.4301   395.0955

       T/K    H(0)-H(T)+PV         H(T)/Eh          T*S/Eh         G(T)/Eh
   ------------------------------------------------------------------------
    298.15    0.107597E-01    0.170461E+00    0.448668E-01    0.125594E+00
   ------------------------------------------------------------------------

         :::::::::::::::::::::::::::::::::::::::::::::::::::::
         ::                  THERMODYNAMIC                  ::
         :::::::::::::::::::::::::::::::::::::::::::::::::::::
         :: total free energy         -30.223415398619 Eh   ::
         ::.................................................::
         :: total energy              -30.349009820696 Eh   ::
         :: zero point energy           0.159701493710 Eh   ::
         :: G(RRHO) w/o ZPVE           -0.034107071633 Eh   ::
         :: G(RRHO) contrib.            0.125594422077 Eh   ::
         :::::::::::::::::::::::::::::::::::::::::::::::::::::

           -------------------------------------------------
          | TOTAL ENERGY              -30.349009820696 Eh   |
          | TOTAL ENTHALPY            -30.178548619080 Eh   |
          | TOTAL FREE ENERGY         -30.223415398619 Eh   |
          | GRADIENT NORM               0.000170535361 Eh/α |
          | HOMO-LUMO GAP               3.802113525010 eV   |
           -------------------------------------------------

 * finished run on 2021/11/15 at 09:36:24.093
