   * xtb version 6.4.1 (afa7bdf) compiled by 'ehlert@majestix' on 2021-06-10
          program call               : xtb 18_4-nitrophenol.xyz --gfn2 --chrg 0 --uhf 0 --alpb water --ohess -P 1
          number of atoms            :                    15
          number of electrons        :                    52
          charge                     :                     0

   ID    Z sym.   atoms
    1    6 C      1-6
    2    1 H      7, 8, 10, 11, 15
    3    8 O      9, 13, 14
    4    7 N      12

        Solvent                        water
        Solvent mass                       1.8000E+01 g/mol
          :  Hamiltonian                  GFN2-xTB          :
 * total energy  :   -30.4319972 Eh     change       -0.1813234E-09 Eh
 * total energy  :   -30.4331553 Eh     change       -0.1158167E-02 Eh
 * total energy  :   -30.4334365 Eh     change       -0.2811684E-03 Eh
 * total energy  :   -30.4334763 Eh     change       -0.3980636E-04 Eh
 * total energy  :   -30.4334844 Eh     change       -0.8051115E-05 Eh
 * total energy  :   -30.4334900 Eh     change       -0.5639784E-05 Eh
 * total energy  :   -30.4334910 Eh     change       -0.9694662E-06 Eh
   *** GEOMETRY OPTIMIZATION CONVERGED AFTER 7 ITERATIONS ***

 final structure:
================
15
 xtb: 6.4.1 (afa7bdf)
C         0.70134069957036    0.00121198799739    0.00013211524713
C         0.01496120517672    1.22013470608564   -0.00005446021328
C        -1.35658641613801    1.22599841777643   -0.00002390800762
C        -2.07018452036448    0.01768773109359    0.00014385232226
C        -1.37354246572350   -1.19799310455378    0.00019185751952
C         0.00034890457833   -1.20733589618591    0.00014939325768
H        -1.91446134502034   -2.13121593660725    0.00027747325055
H         0.55567819411554   -2.13213558553334    0.00025922857263
O        -3.40106649239421    0.08352225776392    0.00014369170550
H        -3.81660744586466   -0.79579409689345    0.00023158594508
H        -1.91180786535308    2.14920916665650   -0.00007498155909
N         2.10900720062452   -0.00880811266868    0.00045898242757
O         2.70876488043054    1.06163890409386   -0.00028118719787
O         2.69276462487960   -1.08837750430648   -0.00032948876129
H         0.58072084148270    2.13823006528156   -0.00007515450878

          :  Hamiltonian                  GFN2-xTB          :
         :: gradient norm              0.000582902875 Eh/a0 ::
         :: HOMO-LUMO gap              2.447678522005 eV    ::
         :: SCC energy               -30.782864801661 Eh    ::
         :: -> dispersion             -0.012238386327 Eh    ::
         :: -> Gsolv                  -0.025406246754 Eh    ::
         :: repulsion energy           0.349364205170 Eh    ::

    * Orbital Energies and Occupations

         #    Occupation            Energy/Eh            Energy/eV
      -------------------------------------------------------------
         1        2.0000           -0.7715503             -20.9950
       ...           ...                  ...                  ...
        14        2.0000           -0.5521437             -15.0246
        15        2.0000           -0.5492082             -14.9447
        16        2.0000           -0.5118810             -13.9290
        17        2.0000           -0.5048111             -13.7366
        18        2.0000           -0.4985859             -13.5672
        19        2.0000           -0.4917145             -13.3802
        20        2.0000           -0.4865974             -13.2410
        21        2.0000           -0.4756308             -12.9426
        22        2.0000           -0.4545099             -12.3678
        23        2.0000           -0.4454402             -12.1210
        24        2.0000           -0.4419692             -12.0266
        25        2.0000           -0.4348749             -11.8335
        26        2.0000           -0.4137478             -11.2586 (HOMO)
        27                         -0.3237973              -8.8110 (LUMO)
        28                         -0.2490973              -6.7783
        29                         -0.2250133              -6.1229
        30                         -0.1119312              -3.0458
        31                          0.0085149               0.2317
        32                          0.0689113               1.8752
        33                          0.1272712               3.4632
        34                          0.1338785               3.6430
        35                          0.1548692               4.2142
        36                          0.1730086               4.7078
        37                          0.2005456               5.4571
       ...                                ...                  ...
        45                          0.6410097              17.4428
      -------------------------------------------------------------
                  HL-Gap            0.0899504 Eh            2.4477 eV

     #   Z          covCN         q      C6AA      α(0)
     1   6 C        2.916    -0.000    28.040     8.683
     2   6 C        2.917    -0.020    28.495     8.754
     3   6 C        2.918    -0.053    29.307     8.878
     4   6 C        2.845     0.179    24.169     8.057
     5   6 C        2.916    -0.068    29.684     8.934
     6   6 C        2.917    -0.019    28.484     8.752
     7   1 H        0.926     0.088     1.899     2.155
     8   1 H        0.926     0.088     1.895     2.153
     9   8 O        1.660    -0.399    20.819     6.160
    10   1 H        0.804     0.402     0.480     1.089
    11   1 H        0.926     0.092     1.862     2.134
    12   7 N        2.763     0.552    13.456     5.448
    13   8 O        0.930    -0.465    22.991     6.430
    14   8 O        0.930    -0.465    22.994     6.431
    15   1 H        0.926     0.088     1.903     2.157

Wiberg/Mayer (AO) data.
largest (>0.10) Wiberg bond orders for each atom

     #   Z sym  total        # sym  WBO       # sym  WBO       # sym  WBO
 ---------------------------------------------------------------------------
     1   6 C    3.946 --     6 C    1.331     2 C    1.323    12 N    1.032
     2   6 C    3.984 --     3 C    1.518     1 C    1.323    15 H    0.960
     3   6 C    3.985 --     2 C    1.518     4 C    1.311    11 H    0.962
     4   6 C    3.945 --     5 C    1.321     3 C    1.311     9 O    1.160
     5   6 C    3.984 --     6 C    1.506     4 C    1.321     7 H    0.960
     6   6 C    3.983 --     5 C    1.506     1 C    1.331     8 H    0.960
     7   1 H    0.992 --     5 C    0.960
     8   1 H    0.992 --     6 C    0.960
     9   8 O    2.146 --     4 C    1.160    10 H    0.816
    10   1 H    0.838 --     9 O    0.816
    11   1 H    0.991 --     3 C    0.962
    12   7 N    3.893 --    13 O    1.401    14 O    1.400     1 C    1.032
    13   8 O    1.856 --    12 N    1.401    14 O    0.305
    14   8 O    1.854 --    12 N    1.400    13 O    0.305
    15   1 H    0.992 --     2 C    0.960
 ---------------------------------------------------------------------------

molecular dipole:
                 x           y           z       tot (Debye)
 q only:       -3.739      -0.601       0.001
   full:       -3.639      -0.751       0.001       9.444

 projected vibrational frequencies (cm⁻¹)
eigval :       -0.00    -0.00    -0.00     0.00     0.00     0.00
eigval :       73.47   108.48   211.27   286.71   352.37   374.41
eigval :      390.19   471.25   487.63   542.55   608.55   622.99
eigval :      657.74   731.70   787.25   833.06   857.07   874.54
eigval :      917.93   925.67  1000.04  1081.39  1122.59  1145.61
eigval :     1172.33  1252.36  1264.58  1313.81  1364.66  1437.59
eigval :     1462.75  1529.89  1561.12  1584.11  3099.48  3112.85
eigval :     3113.44  3126.18  3395.60

   temp. (K)  partition function   enthalpy   heat capacity  entropy
                                   cal/mol     cal/K/mol   cal/K/mol   J/K/mol
 298.15  VIB   53.6                 3310.936     25.117     18.839
         ROT  0.573E+06              888.752      2.981     29.328
         INT  0.307E+08             4199.688     28.098     48.168
         TR   0.159E+28             1481.254      4.968     40.683
         TOT                        5680.9423    33.0660    88.8513   371.7537

       T/K    H(0)-H(T)+PV         H(T)/Eh          T*S/Eh         G(T)/Eh
   ------------------------------------------------------------------------
    298.15    0.905316E-02    0.112152E+00    0.422161E-01    0.699360E-01
   ------------------------------------------------------------------------

         :::::::::::::::::::::::::::::::::::::::::::::::::::::
         ::                  THERMODYNAMIC                  ::
         :::::::::::::::::::::::::::::::::::::::::::::::::::::
         :: total free energy         -30.363554920056 Eh   ::
         ::.................................................::
         :: total energy              -30.433490959872 Eh   ::
         :: zero point energy           0.103098983248 Eh   ::
         :: G(RRHO) w/o ZPVE           -0.033162943432 Eh   ::
         :: G(RRHO) contrib.            0.069936039816 Eh   ::
         :::::::::::::::::::::::::::::::::::::::::::::::::::::

           -------------------------------------------------
          | TOTAL ENERGY              -30.433490959872 Eh   |
          | TOTAL ENTHALPY            -30.321338818823 Eh   |
          | TOTAL FREE ENERGY         -30.363554920056 Eh   |
          | GRADIENT NORM               0.000581828289 Eh/α |
          | HOMO-LUMO GAP               2.447676299716 eV   |
           -------------------------------------------------

 * finished run on 2021/11/15 at 09:36:16.725
