   * xtb version 6.4.1 (afa7bdf) compiled by 'ehlert@majestix' on 2021-06-10
          program call               : xtb 10_bisphenol-A.xyz --gfn2 --chrg 0 --uhf 0 --alpb water --ohess -P 1
          number of atoms            :                    33
          number of electrons        :                    88
          charge                     :                     0

   ID    Z sym.   atoms
    1    6 C      1-6, 11-15, 17, 19, 26, 30
    2    1 H      7-10, 16, 18, 20, 21, 23, 25, 27-29, 31-33
    3    8 O      22, 24

        Solvent                        water
        Solvent mass                       1.8000E+01 g/mol
          :  Hamiltonian                  GFN2-xTB          :
 * total energy  :   -48.4190928 Eh     change       -0.1393495E-08 Eh
 * total energy  :   -48.4213391 Eh     change       -0.2246389E-02 Eh
 * total energy  :   -48.4217829 Eh     change       -0.4437093E-03 Eh
 * total energy  :   -48.4218962 Eh     change       -0.1133530E-03 Eh
 * total energy  :   -48.4219832 Eh     change       -0.8694723E-04 Eh
 * total energy  :   -48.4220274 Eh     change       -0.4425736E-04 Eh
 * total energy  :   -48.4220619 Eh     change       -0.3445585E-04 Eh
 * total energy  :   -48.4221189 Eh     change       -0.5707890E-04 Eh
 * total energy  :   -48.4221711 Eh     change       -0.5211711E-04 Eh
 * total energy  :   -48.4222162 Eh     change       -0.4517229E-04 Eh
 * total energy  :   -48.4222441 Eh     change       -0.2785447E-04 Eh
 * total energy  :   -48.4222566 Eh     change       -0.1252463E-04 Eh
 * total energy  :   -48.4222621 Eh     change       -0.5513678E-05 Eh
 * total energy  :   -48.4222650 Eh     change       -0.2868209E-05 Eh
   *** GEOMETRY OPTIMIZATION CONVERGED AFTER 14 ITERATIONS ***

 final structure:
================
33
 xtb: 6.4.1 (afa7bdf)
C         1.23561355746978    0.61400199073230   -0.01299854525472
C         1.33158766707584   -0.41948655368872    0.91362157023575
C         2.43404189839097   -1.24984835655545    0.95840520914908
C         3.48113465260462   -1.06230129077339    0.06401676769176
C         3.39971688066641   -0.03146363018998   -0.86410430927114
C         2.29110604475046    0.79387077856659   -0.89683891922780
H         2.47929533570439   -2.04615995443957    1.68765177165976
H         2.26457939593086    1.58244156954730   -1.63102630101222
H         0.52068400938313   -0.58732746705420    1.60762200932274
H         4.21623714859354    0.10792526180702   -1.55564526694250
C        -0.00072691557337    1.49921003788838    0.01513130662941
C        -1.22793331999483    0.60096640153393    0.02352197735305
C        -2.30081473266239    0.77518896561904    0.88435432624919
C        -1.29851237437600   -0.43566220269976   -0.90479477871249
C        -3.40512921849256   -0.05921046414022    0.83104774285570
H        -2.29368561449284    1.56519117776258    1.61740340437422
C        -2.39213026865224   -1.27240222472137   -0.96915568000175
H        -0.47386456004539   -0.59694611586507   -1.58382946926257
C        -3.45999107192474   -1.09088737525791   -0.09499229502188
H        -4.22656833491324    0.09695908335844    1.51616880577153
H        -2.44063631746822   -2.07451380566531   -1.68874413418607
O         4.59153455772856   -1.85223336482483    0.05782632912085
H         4.52864892455561   -2.52956634289455    0.74760323831004
O        -4.52185048589585   -1.94005867292204   -0.18735964406288
H        -5.19568937294771   -1.71154461554864    0.47046899700996
C        -0.11541724280496    2.41021249264937   -1.21542975707067
H         0.68567217278772    3.14498787569850   -1.22887060763016
H        -0.08684240379970    1.83040198362664   -2.13435684372146
H        -1.06460166056627    2.94105562827328   -1.17892119650409
C         0.10305770619361    2.38743376366157    1.26356403605320
H         1.05184946654789    2.91980324430303    1.24387959579240
H        -0.69836336617853    3.12163711059484    1.28408381213217
H         0.06742884240581    1.79139407161803    2.17169084817135

          :  Hamiltonian                  GFN2-xTB          :
         :: gradient norm              0.000742733079 Eh/a0 ::
         :: HOMO-LUMO gap              4.080028842471 eV    ::
         :: SCC energy               -49.189402576132 Eh    ::
         :: -> dispersion             -0.034858014397 Eh    ::
         :: -> Gsolv                  -0.018132124736 Eh    ::
         :: repulsion energy           0.766767936538 Eh    ::

    * Orbital Energies and Occupations

         #    Occupation            Energy/Eh            Energy/eV
      -------------------------------------------------------------
         1        2.0000           -0.7050622             -19.1857
       ...           ...                  ...                  ...
        32        2.0000           -0.4584791             -12.4759
        33        2.0000           -0.4553293             -12.3901
        34        2.0000           -0.4503817             -12.2555
        35        2.0000           -0.4473705             -12.1736
        36        2.0000           -0.4366272             -11.8812
        37        2.0000           -0.4274984             -11.6328
        38        2.0000           -0.4200675             -11.4306
        39        2.0000           -0.4134487             -11.2505
        40        2.0000           -0.4073400             -11.0843
        41        2.0000           -0.4007701             -10.9055
        42        2.0000           -0.3992892             -10.8652
        43        2.0000           -0.3770331             -10.2596
        44        2.0000           -0.3699580             -10.0671 (HOMO)
        45                         -0.2200199              -5.9870 (LUMO)
        46                         -0.2169121              -5.9025
        47                         -0.2098707              -5.7109
        48                         -0.2057465              -5.5986
        49                         -0.0856391              -2.3304
        50                         -0.0853017              -2.3212
        51                          0.0670408               1.8243
        52                          0.0675132               1.8371
        53                          0.0844229               2.2973
        54                          0.0871933               2.3726
        55                          0.1095126               2.9800
       ...                                ...                  ...
        84                          0.6721755              18.2908
      -------------------------------------------------------------
                  HL-Gap            0.1499381 Eh            4.0800 eV

     #   Z          covCN         q      C6AA      α(0)
     1   6 C        2.978    -0.001    28.047     8.687
     2   6 C        2.928    -0.039    28.979     8.828
     3   6 C        2.917    -0.077    29.935     8.972
     4   6 C        2.846     0.140    24.949     8.186
     5   6 C        2.919    -0.065    29.613     8.924
     6   6 C        2.925    -0.044    29.096     8.846
     7   1 H        0.926     0.037     2.484     2.465
     8   1 H        0.926     0.046     2.372     2.409
     9   1 H        0.926     0.032     2.555     2.500
    10   1 H        0.926     0.042     2.417     2.431
    11   6 C        3.909     0.017    20.232     6.393
    12   6 C        2.979    -0.001    28.046     8.687
    13   6 C        2.924    -0.045    29.110     8.848
    14   6 C        2.928    -0.039    28.967     8.826
    15   6 C        2.918    -0.079    29.975     8.978
    16   1 H        0.926     0.046     2.366     2.405
    17   6 C        2.918    -0.063    29.574     8.918
    18   1 H        0.926     0.032     2.564     2.504
    19   6 C        2.846     0.140    24.948     8.186
    20   1 H        0.926     0.039     2.460     2.453
    21   1 H        0.926     0.041     2.439     2.442
    22   8 O        1.659    -0.464    22.125     6.350
    23   1 H        0.804     0.369     0.546     1.161
    24   8 O        1.659    -0.464    22.135     6.351
    25   1 H        0.804     0.369     0.545     1.160
    26   6 C        3.762    -0.110    22.657     6.785
    27   1 H        0.925     0.046     2.372     2.409
    28   1 H        0.925     0.039     2.458     2.452
    29   1 H        0.925     0.041     2.441     2.443
    30   6 C        3.762    -0.111    22.665     6.786
    31   1 H        0.925     0.040     2.445     2.446
    32   1 H        0.925     0.046     2.366     2.406
    33   1 H        0.925     0.041     2.440     2.443

Wiberg/Mayer (AO) data.
largest (>0.10) Wiberg bond orders for each atom

     #   Z sym  total        # sym  WBO       # sym  WBO       # sym  WBO
 ---------------------------------------------------------------------------
     1   6 C    3.986 --     6 C    1.412     2 C    1.402    11 C    0.977
     2   6 C    3.992 --     3 C    1.457     1 C    1.402     9 H    0.968
                             5 C    0.109
     3   6 C    3.986 --     2 C    1.457     4 C    1.368     7 H    0.966
                             6 C    0.103
     4   6 C    3.937 --     5 C    1.371     3 C    1.368    22 O    1.067
     5   6 C    3.987 --     6 C    1.450     4 C    1.371    10 H    0.969
                             2 C    0.109
     6   6 C    3.990 --     5 C    1.450     1 C    1.412     8 H    0.965
                             3 C    0.103
     7   1 H    0.998 --     3 C    0.966
     8   1 H    0.998 --     6 C    0.965
     9   1 H    0.999 --     2 C    0.968
    10   1 H    0.998 --     5 C    0.969
    11   6 C    3.991 --    30 C    0.985    26 C    0.985     1 C    0.977
                            12 C    0.977
    12   6 C    3.986 --    13 C    1.422    14 C    1.392    11 C    0.977
    13   6 C    3.990 --    15 C    1.437    12 C    1.422    16 H    0.966
                            17 C    0.106
    14   6 C    3.992 --    17 C    1.470    12 C    1.392    18 H    0.968
                            15 C    0.107
    15   6 C    3.985 --    13 C    1.437    19 C    1.382    20 H    0.966
                            14 C    0.107
    16   1 H    0.998 --    13 C    0.966
    17   6 C    3.989 --    14 C    1.470    19 C    1.357    21 H    0.969
                            13 C    0.106
    18   1 H    0.999 --    14 C    0.968
    19   6 C    3.937 --    15 C    1.382    17 C    1.357    24 O    1.067
    20   1 H    0.998 --    15 C    0.966
    21   1 H    0.998 --    17 C    0.969
    22   8 O    2.067 --     4 C    1.067    23 H    0.844
    23   1 H    0.864 --    22 O    0.844
    24   8 O    2.066 --    19 C    1.067    25 H    0.844
    25   1 H    0.864 --    24 O    0.844
    26   6 C    3.994 --    11 C    0.985    29 H    0.985    28 H    0.985
                            27 H    0.982
    27   1 H    0.997 --    26 C    0.982
    28   1 H    0.998 --    26 C    0.985
    29   1 H    0.998 --    26 C    0.985
    30   6 C    3.994 --    11 C    0.985    31 H    0.985    33 H    0.984
                            32 H    0.982
    31   1 H    0.998 --    30 C    0.985
    32   1 H    0.997 --    30 C    0.982
    33   1 H    0.998 --    30 C    0.984
 ---------------------------------------------------------------------------

molecular dipole:
                 x           y           z       tot (Debye)
 q only:       -0.493       0.303       0.899
   full:       -0.616       0.224       1.123       3.305

 projected vibrational frequencies (cm⁻¹)
eigval :       -0.00    -0.00    -0.00     0.00     0.00     0.00
eigval :       35.59    37.58    50.39    88.46   147.20   182.28
eigval :      216.04   255.59   262.69   276.48   297.54   318.26
eigval :      320.97   369.68   371.04   378.56   386.85   396.72
eigval :      398.53   403.86   450.89   474.23   513.66   539.09
eigval :      545.47   611.62   612.64   650.90   683.49   695.28
eigval :      764.52   806.99   809.04   838.64   860.60   864.01
eigval :      864.87   900.31   904.77   920.06   924.80   955.96
eigval :      961.35  1005.49  1010.03  1013.20  1100.22  1105.62
eigval :     1110.88  1129.50  1138.23  1142.62  1179.64  1190.95
eigval :     1194.94  1237.59  1241.48  1275.96  1279.45  1281.49
eigval :     1287.01  1330.95  1334.66  1393.96  1410.90  1418.08
eigval :     1419.27  1488.98  1489.16  1497.85  1499.70  1507.30
eigval :     1508.41  1582.15  1585.01  1610.41  1611.78  3022.81
eigval :     3023.96  3030.35  3035.41  3041.22  3042.55  3063.53
eigval :     3065.74  3075.72  3079.75  3092.88  3100.06  3110.59
eigval :     3111.61  3458.90  3462.22

   temp. (K)  partition function   enthalpy   heat capacity  entropy
                                   cal/mol     cal/K/mol   cal/K/mol   J/K/mol
 298.15  VIB  0.130E+06             8160.146     57.639     47.615
         ROT  0.369E+07              888.752      2.981     33.029
         INT  0.478E+12             9048.898     60.620     80.644
         TR   0.334E+28             1481.254      4.968     42.159
         TOT                       10530.1520    65.5883   122.8033   513.8088

       T/K    H(0)-H(T)+PV         H(T)/Eh          T*S/Eh         G(T)/Eh
   ------------------------------------------------------------------------
    298.15    0.167809E-01    0.282820E+00    0.583478E-01    0.224472E+00
   ------------------------------------------------------------------------

         :::::::::::::::::::::::::::::::::::::::::::::::::::::
         ::                  THERMODYNAMIC                  ::
         :::::::::::::::::::::::::::::::::::::::::::::::::::::
         :: total free energy         -48.197792970713 Eh   ::
         ::.................................................::
         :: total energy              -48.422264996038 Eh   ::
         :: zero point energy           0.266038950272 Eh   ::
         :: G(RRHO) w/o ZPVE           -0.041566924947 Eh   ::
         :: G(RRHO) contrib.            0.224472025325 Eh   ::
         :::::::::::::::::::::::::::::::::::::::::::::::::::::

           -------------------------------------------------
          | TOTAL ENERGY              -48.422264996038 Eh   |
          | TOTAL ENTHALPY            -48.139445180412 Eh   |
          | TOTAL FREE ENERGY         -48.197792970713 Eh   |
          | GRADIENT NORM               0.000742865448 Eh/α |
          | HOMO-LUMO GAP               4.080023698009 eV   |
           -------------------------------------------------

 * finished run on 2021/11/15 at 09:36:17.344
