   * xtb version 6.4.1 (afa7bdf) compiled by 'ehlert@majestix' on 2021-06-10
          program call               : xtb 33_1,2,4-trimethoxybenzene.xyz --gfn2 --chrg 0 --uhf 0 --alpb water --ohess -P 1
          number of atoms            :                    24
          number of electrons        :                    66
          charge                     :                     0

   ID    Z sym.   atoms
    1    6 C      1-6, 10, 15, 21
    2    1 H      7, 8, 11-13, 16-19, 22-24
    3    8 O      9, 14, 20

        Solvent                        water
        Solvent mass                       1.8000E+01 g/mol
          :  Hamiltonian                  GFN2-xTB          :
 * total energy  :   -37.5781364 Eh     change       -0.1302638E-08 Eh
 * total energy  :   -37.5789029 Eh     change       -0.7665320E-03 Eh
 * total energy  :   -37.5789704 Eh     change       -0.6748120E-04 Eh
 * total energy  :   -37.5789818 Eh     change       -0.1133619E-04 Eh
 * total energy  :   -37.5789844 Eh     change       -0.2661233E-05 Eh
   *** GEOMETRY OPTIMIZATION CONVERGED AFTER 5 ITERATIONS ***

 final structure:
================
24
 xtb: 6.4.1 (afa7bdf)
C         1.62557315890416    0.00254025190379   -0.00002331636569
C         0.67520211246286    1.02838878284131   -0.00001966067892
C        -0.67440765295020    0.74184228875736    0.00001874956454
C        -1.10056519624906   -0.60557429596550    0.00004807362961
C        -0.15190836268797   -1.60796219277641    0.00005168019981
C         1.20847589301149   -1.31490842956553    0.00001619536868
H        -0.45120963297207   -2.64277670120315    0.00008487644314
H         1.91180210539250   -2.13024184291181    0.00001428596035
O        -2.45790840812215   -0.79537827119533    0.00007411100691
C        -2.94267684797461   -2.12351680102029   -0.00023075522525
H        -2.61975257937350   -2.66297841282135    0.89443422411533
H        -4.02623740322530   -2.03011234064703   -0.00038285708888
H        -2.61946818374030   -2.66266205513051   -0.89498324341334
O        -1.67017798653092    1.67317386692311    0.00003412381439
C        -1.30935322338805    3.04127194904363   -0.00009120239662
H        -0.73531192858854    3.29783018621626   -0.89425351769176
H        -2.25227426112305    3.58304611475443   -0.00008893159873
H        -0.73522672612810    3.29797729076738    0.89397435032850
H         1.04066216629775    2.04132463076255   -0.00005382339141
O         2.92844744035109    0.42044520001957   -0.00007372716927
C         3.94702182965660   -0.56154603908716    0.00008711283927
H         4.88102146655252   -0.00430968098343    0.00012057193560
H         3.89148412428248   -1.18762801500104    0.89441467800757
H         3.89163809614239   -1.18777148368086   -0.89414999819385

          :  Hamiltonian                  GFN2-xTB          :
         :: gradient norm              0.000476983803 Eh/a0 ::
         :: HOMO-LUMO gap              3.840521955856 eV    ::
         :: SCC energy               -38.038135712439 Eh    ::
         :: -> dispersion             -0.018916399684 Eh    ::
         :: -> Gsolv                  -0.008982538864 Eh    ::
         :: repulsion energy           0.459146219963 Eh    ::

    * Orbital Energies and Occupations

         #    Occupation            Energy/Eh            Energy/eV
      -------------------------------------------------------------
         1        2.0000           -0.7164212             -19.4948
       ...           ...                  ...                  ...
        21        2.0000           -0.4972762             -13.5316
        22        2.0000           -0.4871289             -13.2555
        23        2.0000           -0.4787473             -13.0274
        24        2.0000           -0.4688880             -12.7591
        25        2.0000           -0.4653547             -12.6629
        26        2.0000           -0.4651698             -12.6579
        27        2.0000           -0.4568161             -12.4306
        28        2.0000           -0.4502262             -12.2513
        29        2.0000           -0.4448603             -12.1053
        30        2.0000           -0.4269735             -11.6185
        31        2.0000           -0.4229127             -11.5080
        32        2.0000           -0.3899246             -10.6104
        33        2.0000           -0.3603087              -9.8045 (HOMO)
        34                         -0.2191720              -5.9640 (LUMO)
        35                         -0.2061939              -5.6108
        36                         -0.0860275              -2.3409
        37                          0.0154826               0.4213
        38                          0.0190626               0.5187
        39                          0.0426644               1.1610
        40                          0.1077314               2.9315
        41                          0.1126867               3.0664
        42                          0.1259216               3.4265
        43                          0.1343599               3.6561
        44                          0.1446582               3.9364
       ...                                ...                  ...
        60                          0.6853524              18.6494
      -------------------------------------------------------------
                  HL-Gap            0.1411366 Eh            3.8405 eV

     #   Z          covCN         q      C6AA      α(0)
     1   6 C        2.863     0.128    25.185     8.226
     2   6 C        2.919    -0.102    30.565     9.066
     3   6 C        2.863     0.120    25.348     8.253
     4   6 C        2.862     0.107    25.629     8.298
     5   6 C        2.919    -0.078    29.939     8.973
     6   6 C        2.916    -0.088    30.199     9.011
     7   1 H        0.926     0.058     2.222     2.331
     8   1 H        0.926     0.054     2.269     2.355
     9   8 O        1.704    -0.302    19.024     5.889
    10   6 C        3.642     0.021    20.562     6.519
    11   1 H        0.924     0.054     2.271     2.357
    12   1 H        0.925     0.081     1.968     2.194
    13   1 H        0.924     0.054     2.271     2.357
    14   8 O        1.704    -0.292    18.852     5.862
    15   6 C        3.643     0.019    20.602     6.525
    16   1 H        0.924     0.056     2.242     2.342
    17   1 H        0.925     0.084     1.936     2.176
    18   1 H        0.924     0.056     2.242     2.342
    19   1 H        0.926     0.062     2.173     2.305
    20   8 O        1.704    -0.305    19.075     5.897
    21   6 C        3.642     0.020    20.589     6.524
    22   1 H        0.925     0.081     1.969     2.194
    23   1 H        0.924     0.054     2.273     2.357
    24   1 H        0.924     0.054     2.273     2.357

Wiberg/Mayer (AO) data.
largest (>0.10) Wiberg bond orders for each atom

     #   Z sym  total        # sym  WBO       # sym  WBO       # sym  WBO
 ---------------------------------------------------------------------------
     1   6 C    3.936 --     6 C    1.405     2 C    1.326    20 O    1.049
     2   6 C    3.977 --     3 C    1.430     1 C    1.326    19 H    0.962
     3   6 C    3.937 --     2 C    1.430     4 C    1.254    14 O    1.061
     4   6 C    3.932 --     5 C    1.426     3 C    1.254     9 O    1.045
     5   6 C    3.984 --     4 C    1.426     6 C    1.389     7 H    0.964
     6   6 C    3.982 --     1 C    1.405     5 C    1.389     8 H    0.965
     7   1 H    0.996 --     5 C    0.964
     8   1 H    0.997 --     6 C    0.965
     9   8 O    2.193 --     4 C    1.045    10 C    0.973
    10   6 C    3.931 --    12 H    0.977    13 H    0.976    11 H    0.976
                             9 O    0.973
    11   1 H    0.997 --    10 C    0.976
    12   1 H    0.993 --    10 C    0.977
    13   1 H    0.997 --    10 C    0.976
    14   8 O    2.216 --     3 C    1.061    15 C    0.970
    15   6 C    3.928 --    17 H    0.977    16 H    0.976    18 H    0.976
                            14 O    0.970
    16   1 H    0.997 --    15 C    0.976
    17   1 H    0.992 --    15 C    0.977
    18   1 H    0.997 --    15 C    0.976
    19   1 H    0.995 --     2 C    0.962
    20   8 O    2.193 --     1 C    1.049    21 C    0.972
    21   6 C    3.931 --    22 H    0.978    23 H    0.977    24 H    0.977
                            20 O    0.972
    22   1 H    0.993 --    21 C    0.978
    23   1 H    0.997 --    21 C    0.977
    24   1 H    0.997 --    21 C    0.977
 ---------------------------------------------------------------------------

molecular dipole:
                 x           y           z       tot (Debye)
 q only:        0.471      -0.498      -0.000
   full:        0.595      -0.634      -0.000       2.210

 projected vibrational frequencies (cm⁻¹)
eigval :       -0.00    -0.00    -0.00    -0.00     0.00     0.00
eigval :       65.55    84.59    88.63   140.88   166.86   176.52
eigval :      198.42   223.80   247.45   264.16   287.60   339.58
eigval :      382.39   390.46   436.71   476.87   538.66   587.18
eigval :      588.12   660.52   699.69   780.59   792.75   838.59
eigval :      868.81   924.25  1016.68  1043.71  1060.07  1113.75
eigval :     1114.53  1114.86  1121.20  1134.20  1148.57  1148.97
eigval :     1169.08  1200.39  1250.44  1274.07  1371.42  1385.16
eigval :     1387.39  1392.29  1425.20  1456.06  1457.78  1458.88
eigval :     1467.24  1470.86  1473.21  1478.32  1581.62  1598.82
eigval :     2936.05  2942.30  2942.49  2949.69  2955.15  2955.61
eigval :     3033.46  3033.63  3034.98  3112.83  3123.90  3128.04

   temp. (K)  partition function   enthalpy   heat capacity  entropy
                                   cal/mol     cal/K/mol   cal/K/mol   J/K/mol
 298.15  VIB  0.450E+04             6103.443     40.474     36.779
         ROT  0.139E+07              888.752      2.981     31.086
         INT  0.624E+10             6992.195     43.455     67.865
         TR   0.211E+28             1481.254      4.968     41.249
         TOT                        8473.4491    48.4232   109.1145   456.5350

       T/K    H(0)-H(T)+PV         H(T)/Eh          T*S/Eh         G(T)/Eh
   ------------------------------------------------------------------------
    298.15    0.135033E-01    0.204214E+00    0.518438E-01    0.152371E+00
   ------------------------------------------------------------------------

         :::::::::::::::::::::::::::::::::::::::::::::::::::::
         ::                  THERMODYNAMIC                  ::
         :::::::::::::::::::::::::::::::::::::::::::::::::::::
         :: total free energy         -37.426613856159 Eh   ::
         ::.................................................::
         :: total energy              -37.578984421569 Eh   ::
         :: zero point energy           0.190711075270 Eh   ::
         :: G(RRHO) w/o ZPVE           -0.038340509861 Eh   ::
         :: G(RRHO) contrib.            0.152370565409 Eh   ::
         :::::::::::::::::::::::::::::::::::::::::::::::::::::

           -------------------------------------------------
          | TOTAL ENERGY              -37.578984421569 Eh   |
          | TOTAL ENTHALPY            -37.374770045670 Eh   |
          | TOTAL FREE ENERGY         -37.426613856159 Eh   |
          | GRADIENT NORM               0.000477001847 Eh/α |
          | HOMO-LUMO GAP               3.840523680016 eV   |
           -------------------------------------------------

 * finished run on 2021/11/15 at 09:36:22.824
