   * xtb version 6.4.1 (afa7bdf) compiled by 'ehlert@majestix' on 2021-06-10
          program call               : xtb 22_3-methoxyaniline.xyz --gfn2 --chrg 0 --uhf 0 --alpb water --ohess -P 1
          number of atoms            :                    18
          number of electrons        :                    48
          charge                     :                     0

   ID    Z sym.   atoms
    1    6 C      1-6, 15
    2    1 H      7-10, 12, 13, 16-18
    3    7 N      11
    4    8 O      14

        Solvent                        water
        Solvent mass                       1.8000E+01 g/mol
          :  Hamiltonian                  GFN2-xTB          :
 * total energy  :   -26.5561795 Eh     change       -0.4325464E-09 Eh
 * total energy  :   -26.5571019 Eh     change       -0.9223719E-03 Eh
 * total energy  :   -26.5572637 Eh     change       -0.1617939E-03 Eh
 * total energy  :   -26.5573450 Eh     change       -0.8131614E-04 Eh
 * total energy  :   -26.5573889 Eh     change       -0.4392289E-04 Eh
 * total energy  :   -26.5573974 Eh     change       -0.8530361E-05 Eh
 * total energy  :   -26.5573992 Eh     change       -0.1757680E-05 Eh
   *** GEOMETRY OPTIMIZATION CONVERGED AFTER 7 ITERATIONS ***

 final structure:
================
18
 xtb: 6.4.1 (afa7bdf)
C         0.26029642719934    1.64138915045590   -0.00157671844319
C         0.82247678041212    0.36409697861151    0.00352115401739
C         0.00436905511117   -0.75297629379960    0.01653495735632
C        -1.38699866448059   -0.60987586142262    0.01948558756822
C        -1.93842912903227    0.67219210879442    0.01470930030358
C        -1.11341980397103    1.78023510180941    0.00333415755338
H         0.91741726280777    2.49595594627760   -0.00868244829736
H         0.41912084429492   -1.74880146034937    0.01992833993542
H        -3.01140744283163    0.79087895532317    0.01745601894318
H        -1.54679599545386    2.76933030114316    0.00108312182960
N        -2.19303319861715   -1.72159384789665   -0.04157179951551
H        -1.78097876676318   -2.59451925379546    0.24164892026963
H        -3.15325722931167   -1.59093732318421    0.22807707734163
O         2.19260719375749    0.32339922811807    0.00067204975780
C         2.83323212848615   -0.93632709997551   -0.00373990643159
H         3.89858805434873   -0.71612636529066   -0.01371743786459
H         2.58585816826430   -1.50933364006760    0.89431194549657
H         2.56879731577938   -1.51162662475157   -0.89534431982050

          :  Hamiltonian                  GFN2-xTB          :
         :: gradient norm              0.000395547755 Eh/a0 ::
         :: HOMO-LUMO gap              3.933182237045 eV    ::
         :: SCC energy               -26.958944615830 Eh    ::
         :: -> dispersion             -0.013599282079 Eh    ::
         :: -> Gsolv                  -0.009759931890 Eh    ::
         :: repulsion energy           0.401512481968 Eh    ::

    * Orbital Energies and Occupations

         #    Occupation            Energy/Eh            Energy/eV
      -------------------------------------------------------------
         1        2.0000           -0.7106284             -19.3372
       ...           ...                  ...                  ...
        12        2.0000           -0.5132038             -13.9650
        13        2.0000           -0.5029254             -13.6853
        14        2.0000           -0.5019157             -13.6578
        15        2.0000           -0.4832088             -13.1488
        16        2.0000           -0.4760354             -12.9536
        17        2.0000           -0.4657414             -12.6735
        18        2.0000           -0.4568101             -12.4304
        19        2.0000           -0.4531166             -12.3299
        20        2.0000           -0.4302490             -11.7077
        21        2.0000           -0.4206547             -11.4466
        22        2.0000           -0.4178763             -11.3710
        23        2.0000           -0.3775962             -10.2749
        24        2.0000           -0.3514000              -9.5621 (HOMO)
        25                         -0.2068581              -5.6289 (LUMO)
        26                         -0.1971662              -5.3652
        27                         -0.0755297              -2.0553
        28                          0.0288719               0.7856
        29                          0.0520895               1.4174
        30                          0.1212451               3.2992
        31                          0.1304478               3.5497
        32                          0.1475765               4.0158
        33                          0.1651311               4.4934
        34                          0.1969278               5.3587
        35                          0.2043391               5.5603
       ...                                ...                  ...
        45                          0.6784388              18.4613
      -------------------------------------------------------------
                  HL-Gap            0.1445418 Eh            3.9332 eV

     #   Z          covCN         q      C6AA      α(0)
     1   6 C        2.919    -0.082    30.040     8.988
     2   6 C        2.862     0.134    25.059     8.205
     3   6 C        2.922    -0.106    30.674     9.082
     4   6 C        2.899     0.078    26.251     8.401
     5   6 C        2.922    -0.083    30.072     8.993
     6   6 C        2.919    -0.039    28.961     8.825
     7   1 H        0.926     0.030     2.585     2.514
     8   1 H        0.926     0.035     2.510     2.477
     9   1 H        0.926     0.031     2.572     2.508
    10   1 H        0.926     0.032     2.555     2.500
    11   7 N        2.642    -0.315    28.097     7.872
    12   1 H        0.860     0.199     1.111     1.651
    13   1 H        0.860     0.199     1.110     1.650
    14   8 O        1.704    -0.317    19.297     5.931
    15   6 C        3.640     0.027    20.478     6.507
    16   1 H        0.925     0.074     2.042     2.235
    17   1 H        0.924     0.050     2.324     2.384
    18   1 H        0.924     0.050     2.314     2.379

Wiberg/Mayer (AO) data.
largest (>0.10) Wiberg bond orders for each atom

     #   Z sym  total        # sym  WBO       # sym  WBO       # sym  WBO
 ---------------------------------------------------------------------------
     1   6 C    3.982 --     6 C    1.448     2 C    1.342     7 H    0.970
     2   6 C    3.928 --     3 C    1.405     1 C    1.342    14 O    1.040
     3   6 C    3.974 --     2 C    1.405     4 C    1.336     8 H    0.963
     4   6 C    3.976 --     5 C    1.343     3 C    1.336    11 N    1.181
     5   6 C    3.982 --     6 C    1.448     4 C    1.343     9 H    0.969
     6   6 C    3.992 --     1 C    1.448     5 C    1.448    10 H    0.971
     7   1 H    0.999 --     1 C    0.970
     8   1 H    0.999 --     3 C    0.963
     9   1 H    0.999 --     5 C    0.969
    10   1 H    0.998 --     6 C    0.971
    11   7 N    3.255 --     4 C    1.181    13 H    0.941    12 H    0.941
    12   1 H    0.960 --    11 N    0.941
    13   1 H    0.960 --    11 N    0.941
    14   8 O    2.189 --     2 C    1.040    15 C    0.975
    15   6 C    3.936 --    16 H    0.978    17 H    0.977    18 H    0.977
                            14 O    0.975
    16   1 H    0.994 --    15 C    0.978
    17   1 H    0.998 --    15 C    0.977
    18   1 H    0.997 --    15 C    0.977
 ---------------------------------------------------------------------------

molecular dipole:
                 x           y           z       tot (Debye)
 q only:       -0.535      -1.275       0.198
   full:       -0.527      -1.391       0.378       3.902

 projected vibrational frequencies (cm⁻¹)
eigval :       -0.00    -0.00    -0.00     0.00     0.00     0.00
eigval :       91.99   189.83   209.73   218.28   259.37   367.30
eigval :      387.49   424.17   444.52   488.17   511.99   534.13
eigval :      585.46   651.90   727.71   773.57   831.55   851.44
eigval :      916.27   953.75   988.06  1023.96  1057.83  1116.22
eigval :     1120.06  1151.38  1166.75  1187.61  1271.20  1311.56
eigval :     1345.53  1388.30  1449.63  1461.93  1465.07  1473.65
eigval :     1496.50  1582.00  1601.75  2935.64  2949.45  3029.80
eigval :     3071.63  3084.07  3095.88  3104.75  3474.32  3531.96

   temp. (K)  partition function   enthalpy   heat capacity  entropy
                                   cal/mol     cal/K/mol   cal/K/mol   J/K/mol
 298.15  VIB   49.8                 3605.794     27.574     19.806
         ROT  0.474E+06              888.752      2.981     28.952
         INT  0.236E+08             4494.546     30.555     48.759
         TR   0.132E+28             1481.254      4.968     40.320
         TOT                        5975.8003    35.5228    89.0794   372.7082

       T/K    H(0)-H(T)+PV         H(T)/Eh          T*S/Eh         G(T)/Eh
   ------------------------------------------------------------------------
    298.15    0.952304E-02    0.153857E+00    0.423245E-01    0.111532E+00
   ------------------------------------------------------------------------

         :::::::::::::::::::::::::::::::::::::::::::::::::::::
         ::                  THERMODYNAMIC                  ::
         :::::::::::::::::::::::::::::::::::::::::::::::::::::
         :: total free energy         -26.445867026596 Eh   ::
         ::.................................................::
         :: total energy              -26.557399205678 Eh   ::
         :: zero point energy           0.144333634642 Eh   ::
         :: G(RRHO) w/o ZPVE           -0.032801455560 Eh   ::
         :: G(RRHO) contrib.            0.111532179082 Eh   ::
         :::::::::::::::::::::::::::::::::::::::::::::::::::::

           -------------------------------------------------
          | TOTAL ENERGY              -26.557399205678 Eh   |
          | TOTAL ENTHALPY            -26.403542527149 Eh   |
          | TOTAL FREE ENERGY         -26.445867026596 Eh   |
          | GRADIENT NORM               0.000395291005 Eh/α |
          | HOMO-LUMO GAP               3.933183919650 eV   |
           -------------------------------------------------

 * finished run on 2021/11/15 at 09:36:18.704
