   * xtb version 6.4.1 (afa7bdf) compiled by 'ehlert@majestix' on 2021-06-10
          program call               : xtb 32_1,2,3-trimethoxybenzene.xyz --gfn2 --chrg 0 --uhf 0 --alpb water --ohess -P 1
          number of atoms            :                    24
          number of electrons        :                    66
          charge                     :                     0

   ID    Z sym.   atoms
    1    6 C      1-6, 10, 16, 21
    2    1 H      7, 8, 11-14, 17-19, 22-24
    3    8 O      9, 15, 20

        Solvent                        water
        Solvent mass                       1.8000E+01 g/mol
          :  Hamiltonian                  GFN2-xTB          :
 * total energy  :   -37.5715598 Eh     change       -0.1835119E-09 Eh
 * total energy  :   -37.5724264 Eh     change       -0.8665970E-03 Eh
 * total energy  :   -37.5725119 Eh     change       -0.8544770E-04 Eh
 * total energy  :   -37.5725298 Eh     change       -0.1791897E-04 Eh
 * total energy  :   -37.5725398 Eh     change       -0.1004022E-04 Eh
 * total energy  :   -37.5725425 Eh     change       -0.2676108E-05 Eh
   *** GEOMETRY OPTIMIZATION CONVERGED AFTER 6 ITERATIONS ***

 final structure:
================
24
 xtb: 6.4.1 (afa7bdf)
C         1.20615686562851   -1.65428770836877    0.15748107238327
C         1.21534552109793   -0.28187034682238   -0.07011469046187
C        -0.00000331807211    0.40078600504294   -0.20134178776591
C        -1.21521311790735   -0.28213641146118   -0.07015831500493
C        -1.20573388425203   -1.65455777047085    0.15738023593553
C         0.00028331825985   -2.32111837388468    0.26398785746768
H        -2.12737446638339   -2.20295410483217    0.25323603010228
H         0.00039225255087   -3.38534696715104    0.43896627406036
O        -2.33584741505451    0.48608717596316   -0.17488597267480
C        -3.59872225745708   -0.15022696442787   -0.10274535759111
H        -3.74521015436158   -0.62511681571414    0.87083675124440
H        -4.32538815024594    0.64812738452860   -0.23463634974196
H        -3.71412945298008   -0.88893664577087   -0.89943931004075
H         2.12791500916774   -2.20245985736824    0.25349358315408
O         2.33581761366355    0.48658936416627   -0.17482190402100
C         3.59882057549996   -0.14954415376244   -0.10338822738300
H         4.32529491606524    0.64888741949123   -0.23586799609651
H         3.74600694960050   -0.62426350192311    0.87017261068572
H         3.71381113216656   -0.88836062225622   -0.90004054291802
O        -0.00013661621714    1.75916988989657   -0.49123294735729
C        -0.00071101789217    2.59230162818542    0.65784226125459
H         0.89420381623147    2.41817289362198    1.26280492509663
H        -0.00106032816283    3.61241619637503    0.28208836153262
H        -0.89571179094598    2.41744228694274    1.26245943813996

          :  Hamiltonian                  GFN2-xTB          :
         :: gradient norm              0.000580020937 Eh/a0 ::
         :: HOMO-LUMO gap              4.238128461447 eV    ::
         :: SCC energy               -38.029561612531 Eh    ::
         :: -> dispersion             -0.019588877151 Eh    ::
         :: -> Gsolv                  -0.011256795678 Eh    ::
         :: repulsion energy           0.456926414570 Eh    ::

    * Orbital Energies and Occupations

         #    Occupation            Energy/Eh            Energy/eV
      -------------------------------------------------------------
         1        2.0000           -0.7204758             -19.6051
       ...           ...                  ...                  ...
        21        2.0000           -0.5044013             -13.7255
        22        2.0000           -0.4846376             -13.1877
        23        2.0000           -0.4823795             -13.1262
        24        2.0000           -0.4779852             -13.0066
        25        2.0000           -0.4647682             -12.6470
        26        2.0000           -0.4607111             -12.5366
        27        2.0000           -0.4598496             -12.5131
        28        2.0000           -0.4509480             -12.2709
        29        2.0000           -0.4395340             -11.9603
        30        2.0000           -0.4312100             -11.7338
        31        2.0000           -0.4011400             -10.9156
        32        2.0000           -0.3841947             -10.4545
        33        2.0000           -0.3822799             -10.4024 (HOMO)
        34                         -0.2265318              -6.1642 (LUMO)
        35                         -0.2151280              -5.8539
        36                         -0.0955966              -2.6013
        37                         -0.0013461              -0.0366
        38                          0.0364402               0.9916
        39                          0.0470626               1.2806
        40                          0.1095504               2.9810
        41                          0.1132897               3.0828
        42                          0.1285261               3.4974
        43                          0.1314654               3.5774
        44                          0.1356176               3.6903
       ...                                ...                  ...
        60                          0.6543366              17.8054
      -------------------------------------------------------------
                  HL-Gap            0.1557482 Eh            4.2381 eV

     #   Z          covCN         q      C6AA      α(0)
     1   6 C        2.916    -0.087    30.173     9.008
     2   6 C        2.862     0.122    25.311     8.246
     3   6 C        2.874     0.084    26.128     8.379
     4   6 C        2.862     0.122    25.311     8.246
     5   6 C        2.916    -0.087    30.173     9.008
     6   6 C        2.921    -0.045    29.119     8.849
     7   1 H        0.926     0.061     2.189     2.314
     8   1 H        0.926     0.063     2.165     2.301
     9   8 O        1.704    -0.293    18.866     5.864
    10   6 C        3.642     0.019    20.609     6.527
    11   1 H        0.924     0.059     2.215     2.327
    12   1 H        0.925     0.084     1.941     2.178
    13   1 H        0.924     0.058     2.223     2.332
    14   1 H        0.926     0.061     2.189     2.314
    15   8 O        1.704    -0.293    18.866     5.864
    16   6 C        3.642     0.019    20.608     6.527
    17   1 H        0.925     0.084     1.941     2.178
    18   1 H        0.924     0.059     2.215     2.327
    19   1 H        0.924     0.058     2.223     2.332
    20   8 O        1.702    -0.340    19.700     5.992
    21   6 C        3.652     0.036    20.282     6.468
    22   1 H        0.924     0.042     2.424     2.435
    23   1 H        0.925     0.073     2.055     2.242
    24   1 H        0.924     0.042     2.423     2.434

Wiberg/Mayer (AO) data.
largest (>0.10) Wiberg bond orders for each atom

     #   Z sym  total        # sym  WBO       # sym  WBO       # sym  WBO
 ---------------------------------------------------------------------------
     1   6 C    3.981 --     6 C    1.441     2 C    1.360    14 H    0.963
     2   6 C    3.937 --     1 C    1.360     3 C    1.333    15 O    1.066
     3   6 C    3.931 --     2 C    1.333     4 C    1.333    20 O    0.996
                             6 C    0.100
     4   6 C    3.937 --     5 C    1.360     3 C    1.333     9 O    1.066
     5   6 C    3.981 --     6 C    1.441     4 C    1.360     7 H    0.963
     6   6 C    3.989 --     1 C    1.441     5 C    1.441     8 H    0.968
                             3 C    0.100
     7   1 H    0.996 --     5 C    0.963
     8   1 H    0.996 --     6 C    0.968
     9   8 O    2.217 --     4 C    1.066    10 C    0.968
    10   6 C    3.926 --    12 H    0.977    13 H    0.977    11 H    0.976
                             9 O    0.968
    11   1 H    0.997 --    10 C    0.976
    12   1 H    0.993 --    10 C    0.977
    13   1 H    0.997 --    10 C    0.977
    14   1 H    0.996 --     1 C    0.963
    15   8 O    2.217 --     2 C    1.066    16 C    0.968
    16   6 C    3.926 --    17 H    0.977    19 H    0.977    18 H    0.976
                            15 O    0.968
    17   1 H    0.993 --    16 C    0.977
    18   1 H    0.997 --    16 C    0.976
    19   1 H    0.997 --    16 C    0.977
    20   8 O    2.076 --     3 C    0.996    21 C    0.961
    21   6 C    3.938 --    22 H    0.981    24 H    0.981    23 H    0.979
                            20 O    0.961
    22   1 H    0.998 --    21 C    0.981
    23   1 H    0.994 --    21 C    0.979
    24   1 H    0.998 --    21 C    0.981
 ---------------------------------------------------------------------------

molecular dipole:
                 x           y           z       tot (Debye)
 q only:       -0.000      -0.987       0.678
   full:       -0.000      -1.137       0.778       3.501

 projected vibrational frequencies (cm⁻¹)
eigval :       -0.00    -0.00    -0.00     0.00     0.00     0.00
eigval :      -35.98    63.07   102.46   109.35   157.26   174.29
eigval :      184.45   215.41   232.34   238.19   269.85   325.58
eigval :      353.92   370.41   463.11   502.41   547.64   579.01
eigval :      601.59   680.37   716.01   780.27   791.40   841.03
eigval :      906.28   909.21  1008.71  1036.86  1093.24  1107.90
eigval :     1113.17  1113.30  1121.35  1129.60  1141.42  1155.92
eigval :     1181.06  1198.37  1228.25  1296.73  1320.22  1384.67
eigval :     1386.65  1389.30  1445.14  1446.30  1457.27  1457.36
eigval :     1457.80  1468.18  1468.89  1471.70  1571.14  1579.42
eigval :     2926.48  2943.82  2946.78  2946.83  2959.52  2959.83
eigval :     3031.36  3035.30  3035.45  3097.47  3120.21  3125.09

   temp. (K)  partition function   enthalpy   heat capacity  entropy
                                   cal/mol     cal/K/mol   cal/K/mol   J/K/mol
 298.15  VIB  0.215E+04             5730.277     38.584     34.119
         ROT  0.115E+07              888.752      2.981     30.720
         INT  0.248E+10             6619.029     41.565     64.838
         TR   0.211E+28             1481.254      4.968     41.249
         TOT                        8100.2828    46.5333   106.0875   443.8700

       T/K    H(0)-H(T)+PV         H(T)/Eh          T*S/Eh         G(T)/Eh
   ------------------------------------------------------------------------
    298.15    0.129086E-01    0.203074E+00    0.504056E-01    0.152668E+00
   ------------------------------------------------------------------------

         :::::::::::::::::::::::::::::::::::::::::::::::::::::
         ::                  THERMODYNAMIC                  ::
         :::::::::::::::::::::::::::::::::::::::::::::::::::::
         :: total free energy         -37.419874059421 Eh   ::
         ::.................................................::
         :: total energy              -37.572542513305 Eh   ::
         :: zero point energy           0.190165411043 Eh   ::
         :: G(RRHO) w/o ZPVE           -0.037496957158 Eh   ::
         :: G(RRHO) contrib.            0.152668453885 Eh   ::
         :::::::::::::::::::::::::::::::::::::::::::::::::::::

           -------------------------------------------------
          | TOTAL ENERGY              -37.572542513305 Eh   |
          | TOTAL ENTHALPY            -37.369468479969 Eh   |
          | TOTAL FREE ENERGY         -37.419874059421 Eh   |
          | GRADIENT NORM               0.000580345374 Eh/α |
          | HOMO-LUMO GAP               4.238123463756 eV   |
           -------------------------------------------------

 * finished run on 2021/11/15 at 09:36:22.589
