   * xtb version 6.4.1 (afa7bdf) compiled by 'ehlert@majestix' on 2021-06-10
          program call               : xtb 04_3-hydroxy-acetophenone.xyz --gfn2 --chrg 0 --uhf 0 --alpb water --ohess -P 1
          number of atoms            :                    18
          number of electrons        :                    52
          charge                     :                     0

   ID    Z sym.   atoms
    1    6 C      1-6, 13, 15
    2    8 O      7, 14
    3    1 H      8-12, 16-18

        Solvent                        water
        Solvent mass                       1.8000E+01 g/mol
          :  Hamiltonian                  GFN2-xTB          :
 * total energy  :   -29.3323278 Eh     change       -0.3748966E-09 Eh
 * total energy  :   -29.3331840 Eh     change       -0.8561377E-03 Eh
 * total energy  :   -29.3332863 Eh     change       -0.1023898E-03 Eh
 * total energy  :   -29.3332970 Eh     change       -0.1068124E-04 Eh
 * total energy  :   -29.3332996 Eh     change       -0.2538906E-05 Eh
   *** GEOMETRY OPTIMIZATION CONVERGED AFTER 5 ITERATIONS ***

 final structure:
================
18
 xtb: 6.4.1 (afa7bdf)
C         0.11484012625851    1.52472728980563    0.00002011091160
C        -1.23646533691630    1.81541792422477    0.00002704368162
C        -2.16786488284874    0.79481598048891    0.00000839083948
C        -1.74586542805497   -0.53519464030666   -0.00001900274921
C        -0.38916189694182   -0.83070172698088   -0.00002682325767
C         0.55170904195813    0.19920244285093   -0.00000452052271
O        -2.69643379717727   -1.50003342989722   -0.00003695748342
H        -2.29694986708602   -2.38380719175837   -0.00004928571348
H        -1.56736969905497    2.84199883009318    0.00004772068745
H        -3.22666716104896    0.99911895810066    0.00001422389965
H        -0.07356570316775   -1.86189719143957   -0.00005751481511
H         0.85674412409966    2.30880381590188    0.00003667702734
C         2.01039330836042   -0.05368783598979   -0.00000598929691
O         2.81111353268299    0.87059136511708   -0.00007956648747
C         2.47521226704727   -1.48322188228834    0.00007157603994
H         3.56187484131921   -1.50506496959283    0.00020497207891
H         2.10289079297189   -1.99310970049291    0.88475745243903
H         2.10312373759874   -1.99309903783647   -0.88472150727904

          :  Hamiltonian                  GFN2-xTB          :
         :: gradient norm              0.000673011162 Eh/a0 ::
         :: HOMO-LUMO gap              2.921980222931 eV    ::
         :: SCC energy               -29.754860523960 Eh    ::
         :: -> dispersion             -0.014323469483 Eh    ::
         :: -> Gsolv                  -0.017674860984 Eh    ::
         :: repulsion energy           0.421521354665 Eh    ::

    * Orbital Energies and Occupations

         #    Occupation            Energy/Eh            Energy/eV
      -------------------------------------------------------------
         1        2.0000           -0.7142097             -19.4346
       ...           ...                  ...                  ...
        14        2.0000           -0.5189735             -14.1220
        15        2.0000           -0.5142958             -13.9947
        16        2.0000           -0.5124719             -13.9451
        17        2.0000           -0.4919464             -13.3865
        18        2.0000           -0.4781808             -13.0120
        19        2.0000           -0.4734942             -12.8844
        20        2.0000           -0.4661810             -12.6854
        21        2.0000           -0.4655429             -12.6681
        22        2.0000           -0.4427587             -12.0481
        23        2.0000           -0.4390479             -11.9471
        24        2.0000           -0.4163767             -11.3302
        25        2.0000           -0.3977888             -10.8244
        26        2.0000           -0.3917532             -10.6601 (HOMO)
        27                         -0.2843723              -7.7382 (LUMO)
        28                         -0.2242213              -6.1014
        29                         -0.1947859              -5.3004
        30                         -0.0887579              -2.4152
        31                          0.0647183               1.7611
        32                          0.0890335               2.4227
        33                          0.1202017               3.2709
        34                          0.1497290               4.0743
        35                          0.1625250               4.4225
        36                          0.1846865               5.0256
        37                          0.1876680               5.1067
       ...                                ...                  ...
        48                          0.6572888              17.8857
      -------------------------------------------------------------
                  HL-Gap            0.1073809 Eh            2.9220 eV

     #   Z          covCN         q      C6AA      α(0)
     1   6 C        2.925    -0.033    28.830     8.805
     2   6 C        2.916    -0.033    28.824     8.804
     3   6 C        2.920    -0.052    29.293     8.875
     4   6 C        2.844     0.153    24.687     8.143
     5   6 C        2.919    -0.074    29.851     8.959
     6   6 C        2.970    -0.018    28.457     8.750
     7   8 O        1.659    -0.447    21.782     6.300
     8   1 H        0.804     0.380     0.522     1.135
     9   1 H        0.926     0.056     2.251     2.346
    10   1 H        0.926     0.065     2.143     2.289
    11   1 H        0.926     0.066     2.133     2.284
    12   1 H        0.926     0.052     2.301     2.372
    13   6 C        2.819     0.240    22.985     7.855
    14   8 O        0.858    -0.452    22.745     6.394
    15   6 C        3.754    -0.156    23.585     6.925
    16   1 H        0.925     0.071     2.071     2.250
    17   1 H        0.925     0.092     1.862     2.134
    18   1 H        0.925     0.092     1.862     2.134

Wiberg/Mayer (AO) data.
largest (>0.10) Wiberg bond orders for each atom

     #   Z sym  total        # sym  WBO       # sym  WBO       # sym  WBO
 ---------------------------------------------------------------------------
     1   6 C    3.991 --     2 C    1.442     6 C    1.376    12 H    0.967
     2   6 C    3.990 --     3 C    1.453     1 C    1.442     9 H    0.968
     3   6 C    3.989 --     2 C    1.453     4 C    1.346    10 H    0.967
     4   6 C    3.945 --     5 C    1.389     3 C    1.346     7 O    1.090
     5   6 C    3.987 --     4 C    1.389     6 C    1.379    11 H    0.959
     6   6 C    3.988 --     5 C    1.379     1 C    1.376    13 C    1.041
     7   8 O    2.091 --     4 C    1.090     8 H    0.835
     8   1 H    0.855 --     7 O    0.835
     9   1 H    0.996 --     2 C    0.968
    10   1 H    0.995 --     3 C    0.967
    11   1 H    0.996 --     5 C    0.959
    12   1 H    0.997 --     1 C    0.967
    13   6 C    3.907 --    14 O    1.760     6 C    1.041    15 C    1.017
    14   8 O    2.000 --    13 C    1.760
    15   6 C    3.991 --    13 C    1.017    16 H    0.982    17 H    0.953
                            18 H    0.953
    16   1 H    0.995 --    15 C    0.982
    17   1 H    0.992 --    15 C    0.953
    18   1 H    0.992 --    15 C    0.953
 ---------------------------------------------------------------------------

molecular dipole:
                 x           y           z       tot (Debye)
 q only:       -1.052      -1.587       0.000
   full:       -0.965      -1.728       0.000       5.030

 projected vibrational frequencies (cm⁻¹)
eigval :       -0.00    -0.00    -0.00    -0.00     0.00     0.00
eigval :       38.07   137.54   186.36   199.80   221.48   357.98
eigval :      375.17   389.19   430.39   463.85   479.23   500.86
eigval :      591.90   614.44   658.05   708.36   792.98   854.86
eigval :      898.97   926.30   927.22   976.35   983.07   992.97
eigval :     1097.63  1110.21  1125.28  1171.73  1208.44  1264.25
eigval :     1275.59  1342.18  1355.32  1436.59  1441.69  1452.30
eigval :     1463.18  1574.56  1587.70  1656.45  3034.96  3037.11
eigval :     3054.58  3091.21  3099.96  3103.99  3112.02  3445.52

   temp. (K)  partition function   enthalpy   heat capacity  entropy
                                   cal/mol     cal/K/mol   cal/K/mol   J/K/mol
 298.15  VIB   188.                 3987.834     29.206     22.625
         ROT  0.658E+06              888.752      2.981     29.604
         INT  0.124E+09             4876.586     32.187     52.229
         TR   0.154E+28             1481.254      4.968     40.619
         TOT                        6357.8399    37.1554    92.8479   388.4756

       T/K    H(0)-H(T)+PV         H(T)/Eh          T*S/Eh         G(T)/Eh
   ------------------------------------------------------------------------
    298.15    0.101319E-01    0.147387E+00    0.441150E-01    0.103271E+00
   ------------------------------------------------------------------------

         :::::::::::::::::::::::::::::::::::::::::::::::::::::
         ::                  THERMODYNAMIC                  ::
         :::::::::::::::::::::::::::::::::::::::::::::::::::::
         :: total free energy         -29.230028069354 Eh   ::
         ::.................................................::
         :: total energy              -29.333299565644 Eh   ::
         :: zero point energy           0.137254664919 Eh   ::
         :: G(RRHO) w/o ZPVE           -0.033983168630 Eh   ::
         :: G(RRHO) contrib.            0.103271496289 Eh   ::
         :::::::::::::::::::::::::::::::::::::::::::::::::::::

           -------------------------------------------------
          | TOTAL ENERGY              -29.333299565644 Eh   |
          | TOTAL ENTHALPY            -29.185913037992 Eh   |
          | TOTAL FREE ENERGY         -29.230028069354 Eh   |
          | GRADIENT NORM               0.000672767119 Eh/α |
          | HOMO-LUMO GAP               2.921982988472 eV   |
           -------------------------------------------------

 * finished run on 2021/11/15 at 09:36:10.265
