   * xtb version 6.4.1 (afa7bdf) compiled by 'ehlert@majestix' on 2021-06-10
          program call               : xtb 30_diphenylamine.xyz --gfn2 --chrg 0 --uhf 0 --alpb water --ohess -P 1
          number of atoms            :                    24
          number of electrons        :                    64
          charge                     :                     0

   ID    Z sym.   atoms
    1    6 C      1-6, 14-17, 19, 21
    2    1 H      7-11, 13, 18, 20, 22-24
    3    7 N      12

        Solvent                        water
        Solvent mass                       1.8000E+01 g/mol
          :  Hamiltonian                  GFN2-xTB          :
 * total energy  :   -34.2096430 Eh     change       -0.1889155E-08 Eh
 * total energy  :   -34.2110571 Eh     change       -0.1414051E-02 Eh
 * total energy  :   -34.2111657 Eh     change       -0.1086736E-03 Eh
 * total energy  :   -34.2112025 Eh     change       -0.3677225E-04 Eh
 * total energy  :   -34.2112381 Eh     change       -0.3563254E-04 Eh
 * total energy  :   -34.2112773 Eh     change       -0.3914646E-04 Eh
 * total energy  :   -34.2113157 Eh     change       -0.3842018E-04 Eh
 * total energy  :   -34.2113385 Eh     change       -0.2277845E-04 Eh
 * total energy  :   -34.2113480 Eh     change       -0.9528212E-05 Eh
 * total energy  :   -34.2113530 Eh     change       -0.5002397E-05 Eh
 * total energy  :   -34.2113569 Eh     change       -0.3918189E-05 Eh
   *** GEOMETRY OPTIMIZATION CONVERGED AFTER 11 ITERATIONS ***

 final structure:
================
24
 xtb: 6.4.1 (afa7bdf)
C        -3.61908876131248   -0.65814766378883    0.38537098494840
C        -2.35017381722922   -1.20045198014576    0.40687449619441
C        -1.24778435679492   -0.45459967031742   -0.02065694275336
C        -1.46475011391642    0.83498183463274   -0.50961300790507
C        -2.73822213340929    1.37098654517273   -0.52105665437945
C        -3.82055752261838    0.63633965329921   -0.06611396727772
H        -4.45735078585156   -1.24850840517252    0.72469103039700
H        -2.20103183239148   -2.21132297485833    0.75805593415033
H        -0.63988829063078    1.40507728527437   -0.90696212812140
H        -2.88675432281163    2.37153453931301   -0.89989442032230
H        -4.81172006594050    1.06289800936684   -0.07523841345469
N        -0.00002085822301   -1.04891538134363    0.00009127459825
H        -0.00004202654927   -2.05836875732530    0.00006119702523
C         1.24777328818411   -0.45465040779779    0.02071137373046
C         1.46484176980683    0.83488648957700    0.50973989359455
C         2.35008055584206   -1.20050924488718   -0.40701396711651
C         2.73833080446414    1.37085242157116    0.52105393077878
H         0.64004545179623    1.40497095025063    0.90724093133760
C         3.61901601954536   -0.65824479910181   -0.38563765234323
H         2.20086078026316   -2.21134968795029   -0.75825008183807
C         3.82058211051574    0.63620451686723    0.06591039817477
H         2.88694711524741    2.37136704987786    0.89994610043461
H         4.45721501730775   -1.24860541688852   -0.72511295983275
H         4.81175797470611    1.06273409437466    0.07493064998016

          :  Hamiltonian                  GFN2-xTB          :
         :: gradient norm              0.000217372832 Eh/a0 ::
         :: HOMO-LUMO gap              3.418642518839 eV    ::
         :: SCC energy               -34.858547379946 Eh    ::
         :: -> dispersion             -0.022752395578 Eh    ::
         :: -> Gsolv                  -0.004361775085 Eh    ::
         :: repulsion energy           0.647244474067 Eh    ::

    * Orbital Energies and Occupations

         #    Occupation            Energy/Eh            Energy/eV
      -------------------------------------------------------------
         1        2.0000           -0.6537558             -17.7896
       ...           ...                  ...                  ...
        20        2.0000           -0.4749543             -12.9242
        21        2.0000           -0.4738114             -12.8931
        22        2.0000           -0.4683729             -12.7451
        23        2.0000           -0.4677140             -12.7271
        24        2.0000           -0.4427476             -12.0478
        25        2.0000           -0.4346044             -11.8262
        26        2.0000           -0.4260503             -11.5934
        27        2.0000           -0.4183917             -11.3850
        28        2.0000           -0.4149722             -11.2920
        29        2.0000           -0.3997184             -10.8769
        30        2.0000           -0.3991833             -10.8623
        31        2.0000           -0.3981158             -10.8333
        32        2.0000           -0.3487171              -9.4891 (HOMO)
        33                         -0.2230843              -6.0704 (LUMO)
        34                         -0.2172687              -5.9122
        35                         -0.2163031              -5.8859
        36                         -0.1910650              -5.1991
        37                         -0.0903101              -2.4575
        38                         -0.0741517              -2.0178
        39                          0.0247317               0.6730
        40                          0.1151246               3.1327
        41                          0.1327936               3.6135
        42                          0.1417913               3.8583
        43                          0.1463244               3.9817
       ...                                ...                  ...
        63                          0.6887035              18.7406
      -------------------------------------------------------------
                  HL-Gap            0.1256328 Eh            3.4186 eV

     #   Z          covCN         q      C6AA      α(0)
     1   6 C        2.919    -0.036    28.885     8.813
     2   6 C        2.926    -0.064    29.597     8.922
     3   6 C        2.903     0.071    26.422     8.428
     4   6 C        2.921    -0.058    29.440     8.898
     5   6 C        2.920    -0.036    28.904     8.816
     6   6 C        2.918    -0.049    29.227     8.865
     7   1 H        0.926     0.032     2.557     2.501
     8   1 H        0.926     0.033     2.548     2.496
     9   1 H        0.926     0.036     2.499     2.472
    10   1 H        0.926     0.031     2.577     2.510
    11   1 H        0.926     0.027     2.625     2.534
    12   7 N        2.700    -0.164    24.548     7.359
    13   1 H        0.860     0.192     1.148     1.679
    14   6 C        2.903     0.071    26.422     8.428
    15   6 C        2.921    -0.058    29.440     8.898
    16   6 C        2.926    -0.064    29.597     8.922
    17   6 C        2.920    -0.036    28.904     8.816
    18   1 H        0.926     0.036     2.499     2.472
    19   6 C        2.919    -0.036    28.885     8.813
    20   1 H        0.926     0.033     2.548     2.496
    21   6 C        2.918    -0.049    29.227     8.865
    22   1 H        0.926     0.031     2.577     2.510
    23   1 H        0.926     0.032     2.557     2.501
    24   1 H        0.926     0.027     2.625     2.534

Wiberg/Mayer (AO) data.
largest (>0.10) Wiberg bond orders for each atom

     #   Z sym  total        # sym  WBO       # sym  WBO       # sym  WBO
 ---------------------------------------------------------------------------
     1   6 C    3.991 --     2 C    1.465     6 C    1.425     7 H    0.971
                             4 C    0.103
     2   6 C    3.982 --     1 C    1.465     3 C    1.347     8 H    0.968
                             5 C    0.104
     3   6 C    3.970 --     4 C    1.353     2 C    1.347    12 N    1.122
     4   6 C    3.984 --     5 C    1.458     3 C    1.353     9 H    0.966
                             1 C    0.103
     5   6 C    3.992 --     4 C    1.458     6 C    1.430    10 H    0.971
                             2 C    0.104
     6   6 C    3.978 --     5 C    1.430     1 C    1.425    11 H    0.972
     7   1 H    0.998 --     1 C    0.971
     8   1 H    0.999 --     2 C    0.968
     9   1 H    0.999 --     4 C    0.966
    10   1 H    0.999 --     5 C    0.971
    11   1 H    0.999 --     6 C    0.972
    12   7 N    3.444 --     3 C    1.122    14 C    1.122    13 H    0.927
    13   1 H    0.962 --    12 N    0.927
    14   6 C    3.970 --    15 C    1.353    16 C    1.347    12 N    1.122
    15   6 C    3.984 --    17 C    1.458    14 C    1.353    18 H    0.966
                            19 C    0.103
    16   6 C    3.982 --    19 C    1.465    14 C    1.347    20 H    0.968
                            17 C    0.104
    17   6 C    3.992 --    15 C    1.458    21 C    1.430    22 H    0.971
                            16 C    0.104
    18   1 H    0.999 --    15 C    0.966
    19   6 C    3.991 --    16 C    1.465    21 C    1.425    23 H    0.971
                            15 C    0.103
    20   1 H    0.999 --    16 C    0.968
    21   6 C    3.978 --    17 C    1.430    19 C    1.425    24 H    0.972
    22   1 H    0.999 --    17 C    0.971
    23   1 H    0.998 --    19 C    0.971
    24   1 H    0.999 --    21 C    0.972
 ---------------------------------------------------------------------------

molecular dipole:
                 x           y           z       tot (Debye)
 q only:        0.000      -0.501       0.000
   full:        0.000      -0.580      -0.000       1.474

 projected vibrational frequencies (cm⁻¹)
eigval :       -0.00    -0.00    -0.00     0.00     0.00     0.00
eigval :       41.41    55.58   102.49   208.23   220.91   305.18
eigval :      320.76   371.10   390.71   425.48   467.67   475.59
eigval :      539.73   577.16   588.70   615.43   651.85   663.37
eigval :      748.21   757.88   807.54   860.65   867.10   875.14
eigval :      886.83   894.76   919.84   921.18   923.11   940.21
eigval :      981.12   993.10  1081.62  1085.93  1117.70  1129.97
eigval :     1179.44  1180.18  1192.07  1200.32  1224.49  1243.01
eigval :     1291.78  1293.96  1330.59  1338.13  1381.66  1443.35
eigval :     1451.94  1478.23  1493.20  1578.26  1579.79  1595.41
eigval :     1604.30  3066.32  3066.38  3071.12  3071.51  3077.21
eigval :     3077.37  3090.58  3091.59  3100.80  3103.18  3433.29

   temp. (K)  partition function   enthalpy   heat capacity  entropy
                                   cal/mol     cal/K/mol   cal/K/mol   J/K/mol
 298.15  VIB   877.                 4888.553     36.999     28.378
         ROT  0.687E+06              888.752      2.981     29.688
         INT  0.602E+09             5777.306     39.980     58.067
         TR   0.213E+28             1481.254      4.968     41.267
         TOT                        7258.5597    44.9480    99.3339   415.6132

       T/K    H(0)-H(T)+PV         H(T)/Eh          T*S/Eh         G(T)/Eh
   ------------------------------------------------------------------------
    298.15    0.115673E-01    0.203258E+00    0.471968E-01    0.156062E+00
   ------------------------------------------------------------------------

         :::::::::::::::::::::::::::::::::::::::::::::::::::::
         ::                  THERMODYNAMIC                  ::
         :::::::::::::::::::::::::::::::::::::::::::::::::::::
         :: total free energy         -34.055295260364 Eh   ::
         ::.................................................::
         :: total energy              -34.211356942795 Eh   ::
         :: zero point energy           0.191691185498 Eh   ::
         :: G(RRHO) w/o ZPVE           -0.035629503067 Eh   ::
         :: G(RRHO) contrib.            0.156061682431 Eh   ::
         :::::::::::::::::::::::::::::::::::::::::::::::::::::

           -------------------------------------------------
          | TOTAL ENERGY              -34.211356942795 Eh   |
          | TOTAL ENTHALPY            -34.008098506060 Eh   |
          | TOTAL FREE ENERGY         -34.055295260364 Eh   |
          | GRADIENT NORM               0.000217382677 Eh/α |
          | HOMO-LUMO GAP               3.418642955383 eV   |
           -------------------------------------------------

 * finished run on 2021/11/15 at 09:36:22.265
